/*--------------------------------*- C++ -*----------------------------------*\
| =========                 |                                                 |
| \\      /  F ield         | OpenFOAM: The Open Source CFD Toolbox           |
|  \\    /   O peration     | Version:  2412                                  |
|   \\  /    A nd           | Website:  www.openfoam.com                      |
|    \\/     M anipulation  |                                                 |
\*---------------------------------------------------------------------------*/
FoamFile
{
    version     2.0;
    format      ascii;
    arch        "LSB;label=32;scalar=64";
    class       surfaceScalarField;
    location    "4";
    object      phi;
}
// * * * * * * * * * * * * * * * * * * * * * * * * * * * * * * * * * * * * * //

dimensions      [0 3 -1 0 0 0 0];

oriented        oriented;

internalField   nonuniform List<scalar> 
47
(
4.39625
-4.39625
-4.61747
-0.371079
4.61747
-0.221223
-4.17044
-0.225802
-4.17044
-4.04959
-0.120851
-4.04959
-0.112222
7.16476
-7.39056
5.85054
1.31422
5.62932
-5.44464
-5.56549
5.35225
-5.72333
-1.82185
-5.13005
-0.0940094
-0.974253
4.36286
5.4211
1.97798
-5.30888
-0.25661
-1.67112
-2.43563
1.48818
-3.1593
3.64187
-3.73588
2.1061
-1.0532
-4.78908
4.99941
-0.912131
-1.49962
-1.14025
-3.93525
0.427611
-2.05238
)
;

boundaryField
{
    wall-4
    {
        type            calculated;
        value           uniform 0;
    }
    velocity-inlet-5
    {
        type            calculated;
        value           nonuniform List<scalar> 0();
    }
    velocity-inlet-6
    {
        type            calculated;
        value           nonuniform List<scalar> 0();
    }
    pressure-outlet-7
    {
        type            calculated;
        value           nonuniform List<scalar> 0();
    }
    wall-8
    {
        type            calculated;
        value           nonuniform List<scalar> 0();
    }
    frontAndBackPlanes
    {
        type            empty;
    }
    procBoundary6to7
    {
        type            processor;
        value           nonuniform List<scalar> 2(-1.62477 -1.43866);
    }
    procBoundary6to8
    {
        type            processor;
        value           nonuniform List<scalar> 5(-1.94592 -3.3886 -3.08036 -3.47486 4.7428);
    }
    procBoundary6to9
    {
        type            processor;
        value           nonuniform List<scalar> 3(-3.93737 -7.39908 -3.02143);
    }
    procBoundary6to19
    {
        type            processor;
        value           nonuniform List<scalar> 4(3.30821 2.63987 4.10675 2.35079);
    }
    procBoundary6to21
    {
        type            processor;
        value           nonuniform List<scalar> 2(4.98855 7.17409);
    }
}


// ************************************************************************* //
