/*--------------------------------*- C++ -*----------------------------------*\
| =========                 |                                                 |
| \\      /  F ield         | OpenFOAM: The Open Source CFD Toolbox           |
|  \\    /   O peration     | Version:  2412                                  |
|   \\  /    A nd           | Website:  www.openfoam.com                      |
|    \\/     M anipulation  |                                                 |
\*---------------------------------------------------------------------------*/
FoamFile
{
    version     2.0;
    format      ascii;
    arch        "LSB;label=32;scalar=64";
    class       volScalarField;
    location    "4";
    object      p;
}
// * * * * * * * * * * * * * * * * * * * * * * * * * * * * * * * * * * * * * //

dimensions      [0 2 -2 0 0 0 0];

internalField   nonuniform List<scalar> 
918
(
0.324047
0.952567
0.00791162
0.321874
0.00195724
0.921355
-0.720256
0.364382
0.305974
-0.10026
0.0193714
0.273313
0.776046
0.548741
-1.49449
0.0253352
0.397073
-0.827774
0.277929
0.0114702
0.570021
0.323199
0.316064
0.279027
0.325584
0.61403
0.656201
0.00378653
0.00177286
0.00592557
0.00215944
0.00319605
0.0150248
0.805547
0.856192
0.878515
0.268459
-0.117741
-0.471791
-0.581386
-0.528977
-0.837987
0.365469
0.377626
-0.3469
0.355827
0.36408
0.276162
0.302453
0.304342
0.305125
0.307767
0.312145
0.266465
-0.129266
-0.211761
-0.0798772
-0.0548382
0.081402
0.0215752
0.0189084
0.0267911
0.0276307
0.221545
0.271172
0.275449
0.28453
0.285183
0.892047
0.864811
0.890543
0.801586
0.820169
0.755487
0.72614
0.564321
0.584665
0.530062
0.526762
-1.8962
-2.67668
-0.981688
-0.691845
0.00244652
0.0271325
0.0406366
0.390112
0.403883
0.391251
0.402268
0.662801
-0.687138
-0.901163
0.288634
0.285029
0.313312
0.307414
0.294506
0.289571
0.0127592
0.0178305
0.00637302
0.0096956
0.00298174
0.459354
0.428019
0.266822
0.276331
0.288227
0.300866
0.29656
0.0668136
0.335528
0.351682
0.292161
0.515078
0.559004
0.554232
0.627787
0.594058
0.688351
0.713607
0.0083956
0.00419798
0.0122702
0.0137148
0.0115939
0.260714
0.256317
0.276859
0.269106
0.269254
-0.203042
-0.322614
0.0115856
0.186116
-0.34071
-0.460575
-0.742084
-0.668519
-0.941375
0.761189
0.369226
0.387109
-0.260726
-0.254623
-0.377105
-0.203612
-0.296141
0.275872
0.277905
0.274994
0.277671
0.272996
0.283141
0.307282
0.304382
0.304373
0.291128
0.359355
0.23199
0.205586
-0.444768
-0.225288
-0.414857
-0.0232189
-0.0219489
0.0936424
0.101039
0.0704995
0.0695039
0.00158882
0.00622077
0.0181696
0.029234
0.0223094
0.217698
0.204119
0.226456
0.239806
0.271657
0.273366
0.269447
0.271951
0.671887
0.69557
0.703228
0.676815
-3.472
-5.73583
-0.371868
-0.193172
0.00430993
0.00590787
0.00176984
0.00282629
0.00676504
0.00220644
0.0502697
0.0489768
0.0387055
0.03029
0.382468
0.388348
0.649671
0.706236
0.593985
0.584444
0.280623
0.282703
0.2912
0.285155
0.0241324
0.0194159
0.0233828
0.358685
0.381303
0.378756
0.03408
-0.0545921
0.110134
0.135191
0.372192
0.364506
0.379245
0.386816
0.430767
0.726274
0.741585
0.741671
0.753018
0.80007
0.819043
0.777195
0.24184
0.250833
0.246797
0.282534
0.27257
0.282061
0.273608
0.271712
0.271461
-0.378653
-0.639982
0.632351
0.519032
0.289308
0.452027
0.737924
0.776456
0.387559
0.379338
0.392067
-0.161211
-0.249099
0.185091
0.156956
0.162223
0.187969
0.173571
0.650982
0.613052
0.661868
0.63251
0.597456
0.618003
-0.593514
-1.7224
-1.00807
0.229479
-0.0066099
0.0984263
0.0648322
0.0455947
0.0511173
0.686328
0.742005
0.392328
0.4822
0.478396
0.503663
0.521015
0.564403
0.49999
0.52938
0.562327
0.55194
0.713651
0.653397
0.724375
0.740721
0.760037
-0.0716609
-0.0996977
-0.17722
0.108345
0.141787
0.12806
0.717977
0.727067
0.771201
0.265757
0.280584
0.00945368
0.0192089
0.303209
0.305762
0.00851083
0.0119314
0.0373676
-1.36882
-0.0129059
0.287274
0.281022
0.297341
-0.0846899
0.263011
0.0280164
0.0906703
0.0685345
0.271344
0.231558
0.19968
0.0179903
0.0191607
0.013415
-0.332953
0.292499
0.276301
0.298933
0.298333
0.304335
0.0137198
0.0116786
0.010104
0.00832866
0.0161198
0.0208462
0.26212
0.269792
-0.190456
0.29449
0.296257
0.299671
0.286155
0.298855
0.291268
0.0173753
0.0115877
0.00708909
0.02528
0.137525
0.395972
0.616497
0.255116
-0.017658
-0.313748
0.266436
0.344857
0.198807
0.442103
0.344552
0.333905
0.0369468
-0.0666503
0.0161344
-0.0504015
0.283019
0.282783
0.273445
0.277994
0.290687
0.287345
0.293706
0.288865
0.292408
0.297437
-0.0249052
-0.0545245
-0.100703
-0.147901
0.284902
0.35987
0.212235
0.219516
0.127767
0.0333758
0.0322904
0.0291355
0.021402
0.0663102
0.0686416
0.0771856
0.0718044
0.0476973
0.0476647
0.0679864
0.0580253
0.0677084
0.269289
0.265083
0.270542
0.289253
0.240073
0.238677
0.213707
0.229771
0.220974
0.177268
0.193689
0.176899
0.0135599
0.0118165
0.00938031
0.0263278
0.026181
0.0212966
0.0179685
-0.000483416
0.00652423
0.0168886
0.0194332
0.0202397
-0.244421
-0.388308
0.611104
0.530025
0.322453
0.287175
0.28914
0.277506
0.283788
0.300166
0.305917
0.300725
0.280434
0.273404
0.270837
0.270875
0.27488
-0.0829488
-0.272549
-0.0727681
-0.174081
-0.123122
0.352168
0.137315
0.109434
0.0902214
0.262412
0.216468
0.310955
0.584108
0.632312
-0.97569
-0.539362
-0.833842
-0.399115
-0.681802
0.412496
0.468167
0.469677
0.427069
0.366399
-0.378443
-0.00640087
-0.125112
-0.0596781
0.115828
-0.00111231
0.307811
0.348379
0.367128
0.316394
0.335417
0.327766
0.297437
0.305634
0.32711
0.345581
0.197254
0.0517914
0.022166
-0.00758349
0.368092
0.230395
0.278289
0.232931
0.27887
0.279057
0.280868
0.273481
0.272471
0.271443
0.271108
0.273601
0.282439
0.283786
0.280596
0.281151
-0.0251801
-0.0125528
-0.0256503
-0.200402
-0.171882
-0.264235
-0.0925381
0.105115
0.0640028
0.27218
0.374309
0.0688414
-0.0930627
-0.0561882
0.0245654
0.154187
0.135149
0.116617
0.141784
0.172363
0.140226
0.200173
0.181328
0.0372143
0.0545304
0.0331525
0.0291041
0.0927469
0.107207
0.108067
0.0516745
0.0622386
0.0305814
0.0374695
0.0814652
0.0546101
0.0717851
0.0738264
0.0252918
0.0309531
0.0413596
0.0368033
0.0554745
0.0386504
0.263896
0.267347
0.269014
0.26816
0.283195
0.297171
0.268582
0.25702
0.244309
0.252405
0.225565
0.238227
0.232191
0.242318
0.254517
0.263476
0.266043
0.267875
0.254459
0.252416
0.24476
0.246037
0.224653
0.210427
0.204113
0.0262848
0.0125311
0.0182909
0.0264901
0.0162342
0.017417
0.0527666
0.0448287
0.0588559
0.0257836
0.0488918
0.0140464
0.0209081
-0.0658517
0.0471897
-0.227141
-0.292926
-0.372075
0.600997
0.656465
0.523808
0.45065
0.46503
0.548631
0.58166
0.373224
0.458072
0.430543
0.673021
0.686424
0.258408
0.259863
0.276397
0.26665
0.267942
0.064717
0.203036
0.146239
0.249198
0.120134
0.0890412
0.470737
0.431225
0.509045
0.473003
0.344021
0.360254
0.310015
0.338407
0.347731
0.191048
0.264759
0.291249
0.270013
0.289178
0.307318
0.28152
0.296804
0.268513
0.250954
0.249254
0.197973
0.210358
0.191228
0.193084
0.256081
0.248807
0.25004
0.247822
0.265522
0.28915
0.287885
0.298213
0.306746
0.247553
0.217383
0.221488
0.246016
0.217913
0.225988
0.236506
0.458155
0.48348
0.199079
-0.345215
-0.28005
-0.346859
-0.414271
-0.214604
0.062857
-0.707712
-0.584441
-1.0601
-0.0993318
0.138137
0.16285
0.186138
0.320283
0.264823
0.231093
0.313001
0.344083
0.353489
0.361043
0.370528
0.260371
0.281909
0.253844
0.284697
0.122397
0.197824
0.200907
0.185483
0.103216
0.137666
0.211971
0.185933
0.122471
0.109452
0.228091
0.131998
0.167774
0.220378
0.186046
0.154642
0.261034
0.330179
0.318306
0.287793
0.2321
0.235055
0.253544
0.281781
0.291449
0.30476
0.270772
0.274589
0.272753
0.276186
0.270346
0.271676
0.270733
0.277825
0.277343
0.289031
0.284577
0.0212543
0.0294497
-0.000859574
-0.00341356
0.0560016
0.0287968
0.0239177
0.0419711
0.0449637
0.0486788
0.0258926
-0.00800864
0.013163
0.0346697
0.173559
0.190565
0.186858
0.127016
0.24619
0.329292
0.379959
0.335828
0.213108
0.24049
0.265106
0.0831457
0.0863034
0.0763398
0.0995398
0.101688
0.0338926
0.0227253
0.0236855
0.0434486
0.034553
0.0221599
0.0239705
0.0275322
0.0255887
0.0320029
0.0260778
0.261223
0.251223
0.231962
0.230908
0.231473
0.247832
0.259891
0.259404
0.265665
0.263676
0.258614
0.262549
0.266016
0.0238701
0.0207348
0.0185403
0.0246641
0.0316098
0.0292235
0.0257776
0.294965
0.166325
0.262738
0.101031
-0.134256
-0.0301458
0.52657
0.620239
0.641728
0.651578
0.584017
0.581115
0.637712
0.686527
0.417531
0.536493
0.476255
0.640505
0.643358
0.676859
0.546718
0.361333
0.0565608
0.176219
0.390362
0.174141
0.212517
0.175936
0.157518
0.240661
0.251028
0.291858
0.344823
0.401071
0.414556
0.318653
0.389049
0.255221
0.350888
0.372484
0.423824
0.352845
0.334421
0.35589
0.373973
0.338529
0.362151
0.315766
0.311629
0.318336
0.332717
0.327013
-0.905164
-0.905742
-1.64561
-1.32822
-0.994098
-0.372159
-0.245659
-0.176929
-0.0759405
0.111017
0.156188
0.213414
0.211102
0.129917
0.175403
0.158491
0.236716
0.229203
0.217681
0.136993
0.0764098
0.296642
0.297
0.307137
0.327402
0.317719
0.330697
0.262909
0.266019
0.267978
0.263825
0.252444
0.251619
0.112629
0.088804
0.132556
0.111752
0.0745574
0.0750416
0.03653
0.0244206
0.0213658
0.0284917
0.0242901
0.0404531
0.317174
0.327584
0.152934
0.251083
0.0373179
-0.0497137
-0.091382
0.100059
0.187113
0.211977
0.459494
0.556381
0.494342
0.523669
0.433288
0.446173
0.57999
0.455308
0.548398
0.465092
0.532829
-0.657702
-0.815807
-0.835027
-0.420504
-0.446859
-0.532705
-0.709733
-0.820731
-0.711693
0.16614
0.176837
0.185571
0.168452
0.18384
-0.464656
-0.264508
-0.371609
-0.0768302
0.353752
-0.0232719
0.157285
0.062184
0.291975
)
;

boundaryField
{
    wall-4
    {
        type            zeroGradient;
    }
    velocity-inlet-5
    {
        type            zeroGradient;
    }
    velocity-inlet-6
    {
        type            zeroGradient;
    }
    pressure-outlet-7
    {
        type            fixedValue;
        value           uniform 0;
    }
    wall-8
    {
        type            zeroGradient;
    }
    frontAndBackPlanes
    {
        type            empty;
    }
}


// ************************************************************************* //
