/*--------------------------------*- C++ -*----------------------------------*\
| =========                 |                                                 |
| \\      /  F ield         | OpenFOAM: The Open Source CFD Toolbox           |
|  \\    /   O peration     | Version:  2412                                  |
|   \\  /    A nd           | Website:  www.openfoam.com                      |
|    \\/     M anipulation  |                                                 |
\*---------------------------------------------------------------------------*/
FoamFile
{
    version     2.0;
    format      ascii;
    arch        "LSB;label=32;scalar=64";
    class       surfaceScalarField;
    location    "4";
    object      phi;
}
// * * * * * * * * * * * * * * * * * * * * * * * * * * * * * * * * * * * * * //

dimensions      [0 3 -1 0 0 0 0];

oriented        oriented;

internalField   nonuniform List<scalar> 
1300
(
3.75095
5.62643
-6.49558
3.75095
-6.35755
5.62643
-5.77562
5.77562
-1.69471
1.69471
1.88096
1.86999
-5.63658
5.63658
-5.50223
5.50223
-3.01849
3.01849
-5.24645
5.24645
-5.09989
5.09989
4.66278
-4.66278
-5.23232
5.23232
-2.18004
2.18004
-6.18245
6.18245
3.15956
-3.15956
-5.54906
5.54906
-0.671361
0.671361
-0.565888
4.31684
3.18506
3.18506
-2.80703
2.80703
-4.84904
4.84904
6.22782
-6.22782
9.76623
-9.76623
-3.27065
-3.31656
1.34902
-8.08526
-5.00853
-5.00853
-8.44027
8.44027
-2.81384
2.81259
3.15953
-3.15953
-1.34456
1.34456
-5.42344
-0.352175
-5.42344
6.13327
-0.357656
6.13327
-1.81418
0.119467
-1.81418
4.39616
-4.39616
1.55554
0.139177
1.55554
3.14081
-3.14081
-1.88406
3.76502
1.86689
-1.84912
6.16597
-1.90183
3.77182
-4.9763
4.9763
-5.70199
0.0654067
-5.70199
5.58564
0.0509451
5.58564
-5.40713
5.40713
-5.53904
0.03681
-5.53904
5.50721
-0.00498759
5.50721
3.20465
-3.20465
-3.04252
0.0240276
-3.04252
2.99524
0.0232551
2.99524
0.353339
5.27309
-5.97977
8.79236
-5.27309
0.0266376
5.20786
0.0385885
5.20787
-5.11862
0.0187259
-5.11862
5.06678
0.0331139
5.06678
4.61057
0.0522168
4.61057
-4.82963
0.166848
-4.82963
-3.29669
-3.25713
-5.32773
0.0954039
-5.32773
-2.18122
0.00118331
-2.18122
2.13131
0.0487295
2.13131
-3.85985
3.85985
-6.43386
0.251409
-6.43386
3.07812
0.0814389
3.07812
1.86057
1.89038
5.61153
-5.61153
2.45197
-5.54278
-0.00628546
-5.54278
-5.54186
-4.22437
5.54186
0.00719874
-1.17004
0.498684
-1.17004
3.14146
0.043609
3.14146
2.96381
0.0314291
-2.96381
0.156783
3.62641
-3.62641
2.12429
0.682731
2.12429
-5.56321
5.56321
4.99657
0.0702032
-4.99657
0.147528
6.16385
0.0639672
6.16385
-6.20819
-0.019629
-6.20819
3.31788
-6.63444
-3.2968
5.10794
0.12438
-5.10794
0.0994122
3.18995
-0.0304223
3.18995
-3.11086
3.11086
-3.15965
0.000123726
-3.15965
-1.46378
0.119223
-1.46378
1.51413
-0.169575
1.51413
-4.98851
-0.43493
-4.98851
-6.38698
-0.0468754
6.38698
-0.253707
2.87771
-2.87771
-1.95238
0.138199
-1.95238
-4.61744
-0.371071
4.61744
-0.221277
-4.17042
-0.225747
-4.17042
-3.13819
-0.0214657
3.13819
0.00262481
3.12199
0.0194634
-3.12199
-0.0188193
-1.87456
3.76494
-1.87639
3.74328
-4.74006
-0.236242
-4.74006
5.05655
-0.0802568
5.05655
5.9031
0.279346
-5.9031
0.201113
5.51912
0.0665124
5.51912
-5.36147
-0.0456609
-5.36147
5.43844
-0.0313117
5.43844
5.54078
-0.0216547
-5.54078
0.00174221
5.52337
-0.0161599
5.52337
3.26869
-0.0640345
3.26869
-3.1901
-0.0145473
-3.1901
3.11625
-3.11625
3.09901
0.0172461
-3.09901
0.0564872
-11.1275
11.1079
-0.0378448
-11.0897
5.17002
5.17002
3.636
0.974567
3.636
-5.02359
0.193964
-5.02359
3.28534
-6.58214
3.27071
-6.5674
3.29999
-11.3852
3.31223
-6.56936
5.45152
-5.45152
5.38499
0.0665303
-5.38499
0.0572624
-2.17522
-0.00600087
-2.17522
-3.71872
-0.141135
-3.71872
4.07811
-0.218257
4.07811
-3.12283
3.12283
-3.10019
-0.0226417
3.10019
-0.0220697
5.50528
0.0180983
-5.50528
-0.0374998
1.39956
0.155979
-1.39956
0.229513
3.79582
-0.169411
3.79582
-3.45658
-0.169837
-3.45658
-2.16059
-0.0146331
2.16059
-0.0362966
-5.80924
0.246033
-5.80924
-11.1884
0.0987212
-11.1498
-6.10947
-6.10947
2.3308
11.1232
-3.17533
-0.0147719
3.17533
0.0146188
3.13657
-0.0137415
-3.13657
0.0257177
-3.11234
-0.00391511
3.11234
-0.00148085
-1.74879
0.285013
-1.74879
-2.27086
2.27086
-1.87346
-0.397404
1.87346
-0.359325
3.06441
-0.186699
3.06441
2.06786
0.0634552
-2.06786
0.115478
-4.04969
-0.120726
-4.04969
5.17109
-0.114539
5.17109
-3.3432
-0.11338
3.3432
-0.0745099
-0.031311
11.1392
-5.13871
0.0200933
5.13871
-11.2032
11.2232
-2.51632
0.767528
2.51632
1.11968
5.2928
0.270402
-5.2928
0.269209
5.46917
-0.0307331
-5.46917
0.017653
-3.53891
-0.179812
-3.53891
-4.37668
-0.363379
4.37668
-0.298565
-11.4224
-0.207339
11.6297
-11.3893
6.01658
0.147277
-6.01658
11.3705
-2.60269
-0.275027
2.60269
-0.331824
3.18307
-0.118662
3.18307
3.93734
-0.141513
-3.93734
-0.112355
-5.31458
-0.0468894
5.31458
-0.143484
-3.34729
-0.191618
3.34729
-0.164213
-4.17549
4.21909
1.99048
-3.32428
-3.31016
-7.54865
1.7996
1.96534
4.25157
-6.99956
-4.38569
-6.90015
7.35568
-7.08647
-9.44458
9.4968
7.16485
-7.3906
-5.81878
5.79671
6.40187
-6.39924
1.84669
1.91833
10.6604
-10.595
-10.1937
9.95747
10.2159
-10.1791
10.534
-10.5796
-12.1699
12.1392
-5.68342
5.70744
-6.61155
6.597
-6.6819
6.60739
-3.24193
-3.32548
9.04844
-8.95304
11.6651
-11.6714
-11.2614
11.5128
3.29937
0.919725
3.31883
-1.92093
3.76762
-1.85089
3.84137
3.29368
-6.53561
3.28846
-6.59862
5.9874
5.67767
-5.9946
-1.55405
-5.87837
5.84795
-5.79546
5.79398
10.0221
-10.3742
-1.86968
3.78801
-1.8736
3.83895
-3.38862
-2.43016
3.30719
0.944379
5.52831
3.52013
-5.65269
-1.24745
-7.54066
7.39915
-7.78399
7.61415
-0.574531
5.85193
-5.2774
4.27451
-1.4859
7.33783
5.86979
6.06375
5.88441
-5.61401
1.20206
-6.47946
-6.33193
-2.63763
2.77583
2.67487
-2.53569
5.8506
1.31426
5.62932
-5.44469
-1.94591
-5.56542
3.85837
1.93834
3.83573
4.08554
2.31633
4.06407
3.06075
-3.06643
0.00567888
-3.07475
6.1355
0.721579
-5.50491
-4.56053
6.98325
3.67716
7.0342
-7.22767
-3.36733
-7.02656
-6.03078
-4.16293
-6.39416
6.44414
3.51332
6.36389
-7.8948
7.75132
6.73619
3.47973
6.7312
-6.81587
-3.36323
-6.81413
10.2315
-2.63798
-7.59357
-6.79493
-5.37501
6.82624
3.70772
7.4397
4.6995
7.45735
3.51706
6.71449
-7.22478
1.84977
-3.82075
-1.86267
-3.76426
3.65247
2.05498
3.67572
-4.17021
-2.44134
-4.18498
-4.19304
-2.48885
4.25708
2.33992
-4.2551
-3.52889
4.36848
2.23891
2.98389
-7.36958
3.58547
-6.91094
-6.27792
-2.67512
-6.22066
3.96216
2.5583
-6.52046
-2.57344
10.7261
-5.04844
9.17206
-7.23092
-4.44044
-7.26842
-8.59859
-2.66282
-8.64546
-5.48654
5.30673
-5.51884
5.30058
10.3698
-5.67172
-4.69813
-3.85782
-2.54142
3.87664
-0.557811
-3.80819
3.81387
-0.0405702
3.8008
4.72053
4.16272
-3.85552
-1.93994
-3.8298
3.84187
1.95211
3.83795
8.35679
1.66528
7.99913
-6.7392
-3.63504
-7.17413
6.56778
-6.44856
2.9882
-3.00283
5.0538
2.56035
-4.88439
-2.65627
5.90582
-2.89143
-3.01439
-12.3125
11.2218
1.09063
-4.97463
-0.700113
-0.0287525
-5.65986
-3.78472
5.49301
0.570742
11.7926
8.00784
-5.50002
5.74605
6.12968
6.19989
-0.132043
4.82905
-4.06152
3.01245
-1.34715
-1.66531
5.35216
-5.72323
-1.82197
-5.1301
3.30812
-0.0939087
2.3999
-1.90122
-2.12771
-0.509929
-2.01223
1.69819
0.976674
1.85417
0.957196
1.81864
-2.83551
0.597585
2.23793
-1.87832
-1.9381
-3.3887
-0.974201
4.3629
5.42127
1.97788
-5.30892
-0.256501
2.80094
-2.75221
-0.639376
-2.74932
2.03441
-2.67378
-3.23817
-1.89175
5.12992
-3.34473
-0.485077
3.35847
0.47726
-3.76706
-2.1113
3.76694
0.297134
-3.00612
6.07624
-3.07011
-4.94606
2.59631
3.53919
4.53465
-4.73925
2.39038
2.34887
-1.20006
6.00684
1.02736
6.07335
-9.09114
5.72381
7.66569
3.84712
-7.94503
0.918475
-8.17267
9.58362
-8.35681
-1.22681
4.9922
4.59141
5.1599
5.20995
-3.77069
8.93059
-1.2477
-7.10911
9.42036
-5.57324
5.72561
-11.2989
-10.9356
3.82645
-6.70944
8.38816
-1.67872
-2.49494
-5.39986
9.20437
-0.849485
-8.35489
5.5144
-5.30242
-5.32015
10.6226
-7.9404
8.68338
-2.53734
-6.14603
-6.60438
-3.97524
6.65127
1.10005
-9.75243
11.6022
-3.03794
5.85795
0.873248
5.84179
3.81026
-5.89087
2.08061
4.13014
-6.66748
2.48186
-8.37273
-4.75673
9.44955
-4.69282
-7.43185
-6.51805
-0.913798
2.04628
9.55592
-6.74578
5.21482
1.53096
3.32156
0.516391
-3.33881
-0.425455
0.326244
4.36329
-4.68954
4.00197
4.03339
3.37413
0.989167
3.82589
2.02205
-3.84051
-0.344468
-3.91923
1.43038
-1.57931
-3.40999
4.84036
-3.80169
0.391704
-2.64868
-3.45036
6.09904
-4.51135
3.03126
3.04497
4.98337
-4.74158
1.29122
-2.37832
-2.36326
2.51047
-4.08978
1.89065
2.94972
4.12955
0.600666
4.80699
4.64256
-7.36529
0.454344
8.16269
-6.91524
1.63606
5.82129
-6.85089
0.332838
-5.88782
1.12691
-6.17535
-5.39356
6.07365
-8.73646
-5.22521
7.88483
0.114307
-7.63112
-1.01434
-3.83654
-1.65001
-4.02815
-1.61552
-3.90332
-5.38621
-1.26228
-4.12394
4.04445
-4.14278
-2.25138
4.44135
0.859232
-4.87069
4.59567
-4.68013
4.56147
0.180027
3.63384
4.34275
1.80133
-2.43378
4.23511
-6.81714
8.48242
-9.64344
2.8263
3.13872
-6.77376
-6.50472
3.76156
2.80622
3.59199
6.35557
-8.35577
2.00019
-6.88141
7.68249
-0.801073
-10.4808
3.59936
-4.1252
2.75884
0.229355
2.75284
0.718027
2.31648
-3.0345
-2.28481
-2.3211
-2.19403
-3.16658
5.36061
1.05431
-3.21357
2.15926
-3.19901
4.25332
-0.192287
-3.02128
5.12583
-2.80935
5.35518
-3.39129
1.96389
3.09647
5.21531
-2.11884
4.13863
-1.57828
1.68422
-3.80307
-1.48236
-2.91795
4.97293
-3.18109
3.5728
-0.283389
3.85619
-3.93911
1.04768
-0.564985
3.46841
3.62519
4.04755
-3.05838
2.76991
-4.34819
-1.03316
-3.74752
-0.797806
-3.01975
-4.09812
7.11787
4.81254
-7.83229
-4.76392
7.22947
-2.46555
6.09842
-5.29736
-0.801059
-3.21601
-3.23255
2.931
1.89805
7.99647
-0.364868
-4.93249
-4.42639
-3.30671
2.29447
0.717989
-3.31673
4.40736
3.34548
-0.945579
0.51513
1.33904
1.94942
-1.43429
0.332666
1.61676
-1.56855
2.06383
0.737106
-2.12729
0.11506
-1.18491
3.21932
1.05302
-2.02969
0.595396
1.29294
-2.64009
4.10689
-1.67122
-2.43567
5.39984
1.48811
-3.15933
3.64199
-3.7359
2.10612
-3.08032
-1.05321
-4.78911
-3.47485
-2.33906
4.49832
-3.02155
4.99943
1.26015
-4.74293
6.00308
-3.36952
1.47777
-2.8495
3.58661
-0.883801
-1.9657
2.58872
2.5412
-2.70613
-0.0431888
-0.11741
2.14172
-2.25913
-0.532064
-2.41038
-4.44609
4.74323
-2.10535
4.49573
2.12977
-1.92964
6.42537
1.79097
-3.72061
-3.15509
-3.64017
-1.37174
3.16291
-0.905254
-5.90888
-7.05129
5.93053
0.142822
-8.92763
10.0667
-1.1391
-5.25047
-0.473334
5.46554
-7.34366
0.676179
-4.8618
5.20493
6.23229
6.37511
-8.24355
-0.111337
-4.73023
1.24493
-5.97516
5.83635
-2.70447
6.53093
-7.08535
4.83397
-6.22612
5.30411
-0.671046
5.47468
-3.39408
2.11889
-6.09413
-4.99408
6.99387
-3.51414
7.86712
-4.07049
11.9376
-7.10843
6.88857
5.04904
-1.3665
-5.90191
-6.84654
5.48004
0.0420232
5.88381
4.78677
-2.76471
4.4423
2.08882
-4.46714
-2.00096
-6.26744
1.80029
-3.22246
-1.8497
3.64999
3.13367
3.65006
1.28674
-3.22461
6.48406
-7.39785
-1.79124
-3.60232
6.73829
-1.25825
3.87749
-7.47981
-2.29785
5.36573
-0.907718
-4.45802
0.305988
-5.53119
2.61849
-8.14968
6.11797
-7.13232
1.57279
-5.69799
-3.2979
-3.62973
-1.34652
-3.33361
-4.67472
3.3282
-1.07536
3.52031
-5.54722
4.6395
-2.13527
5.46347
-3.45021
-0.577945
3.61442
0.947047
6.41052
-1.97823
-4.52649
0.29782
3.88265
-4.18047
2.59229
-6.07636
-2.19371
2.62852
2.77132
-5.93665
-0.837115
-5.3636
-2.62863
5.43485
4.60084
9.41338
1.05762
5.89693
-0.462085
6.95455
3.1299
2.77058
-3.59077
5.59096
3.52711
6.35341
-0.834616
2.7985
1.91823
1.91941
0.832798
2.23187
1.39332
3.27955
0.245048
-2.07605
4.88516
-8.19187
-0.0473302
-7.2173
2.27949
6.27618
-3.99669
3.20253
-2.48454
-0.977938
-0.685403
-1.42232
2.10772
-2.35071
-2.3679
-0.751142
-1.59448
2.18987
1.62484
-1.43873
-0.911979
0.319695
-3.79455
2.76063
-2.80382
-0.262621
5.74046
-2.4927
0.233574
-1.01494
-2.17681
-2.68673
2.57167
6.10468
0.32069
3.03456
5.06392
2.95261
0.187899
4.35199
-6.03071
-4.02074
-6.14204
-0.3057
5.15984
1.93796
7.61796
6.987
5.72875
-1.75106
-9.14892
7.28225
-1.69129
6.48118
-2.02316
-6.12652
6.46904
2.01338
-6.58335
-0.548969
-6.67549
-8.36678
-0.49158
5.13108
-5.91894
5.34099
3.69099
0.432949
-2.74186
-0.88787
3.13926
-0.368684
6.58586
-2.09326
-8.04169
10.1349
-4.18292
4.13559
1.14254
3.26482
3.25026
0.765721
-7.27597
-11.2727
-1.49971
-1.14038
-3.93538
0.427519
-2.05236
5.54542
-1.40982
4.74436
8.72513
7.74719
-3.2812
-4.55109
5.74675
-1.00239
6.7448
)
;

boundaryField
{
    wall-4
    {
        type            calculated;
        value           uniform 0;
    }
    velocity-inlet-5
    {
        type            calculated;
        value           uniform -3.75095;
    }
    velocity-inlet-6
    {
        type            calculated;
        value           uniform -5.62643;
    }
    pressure-outlet-7
    {
        type            calculated;
        value           nonuniform List<scalar> 8(6.49558 6.35755 6.58721 6.73624 6.55382 6.61468 6.55605 6.61222);
    }
    wall-8
    {
        type            calculated;
        value           uniform 0;
    }
    frontAndBackPlanes
    {
        type            empty;
    }
}


// ************************************************************************* //
