/*--------------------------------*- C++ -*----------------------------------*\
| =========                 |                                                 |
| \\      /  F ield         | OpenFOAM: The Open Source CFD Toolbox           |
|  \\    /   O peration     | Version:  2412                                  |
|   \\  /    A nd           | Website:  www.openfoam.com                      |
|    \\/     M anipulation  |                                                 |
\*---------------------------------------------------------------------------*/
FoamFile
{
    version     2.0;
    format      ascii;
    arch        "LSB;label=32;scalar=64";
    class       volVectorField;
    location    "4";
    object      U;
}
// * * * * * * * * * * * * * * * * * * * * * * * * * * * * * * * * * * * * * //

dimensions      [0 1 -1 0 0 0 0];

internalField   nonuniform List<vector> 
918
(
(0.984474 -0.0152041 0)
(0.004857 2.96631 0)
(-0.0217335 1.72341 0)
(0.949943 0.027593 0)
(-0.0152268 1.69751 -3.94896e-21)
(-0.00702261 2.94885 -1.95951e-18)
(1.10835 1.49635 6.31372e-19)
(0.571991 0.303881 -8.09642e-21)
(0.998013 -0.00207848 0)
(0.00769825 1.69188 0)
(0.0154944 1.67107 0)
(0.915514 0.0228635 0)
(0.0123346 2.93076 0)
(-0.0182869 2.82016 0)
(-0.0320087 3.17379 1.21756e-18)
(0.00856794 1.66013 -2.4255e-20)
(0.704137 0.139623 6.05438e-19)
(0.265015 1.96311 6.1786e-19)
(0.962269 0.0345309 0)
(0.0090462 1.68524 0)
(0.254353 0.310903 -5.71411e-19)
(0.975943 -0.00814069 0)
(0.977217 -0.0147514 0)
(0.967712 -0.00190997 0)
(0.843726 0.0233609 0)
(0.0392194 2.63451 0)
(-0.0122372 2.91559 6.73277e-19)
(-0.0124237 1.72876 0)
(-0.00282647 1.75747 0)
(-0.00415118 1.73434 0)
(0.00719189 1.78847 0)
(-0.0100722 1.71339 3.13097e-21)
(-0.00246314 1.65534 0)
(-0.0208697 2.98781 -6.89364e-23)
(-0.0166772 3.00513 1.52303e-18)
(0.0020435 3.00016 0)
(0.960125 0.0048845 0)
(0.355357 0.494087 -1.20717e-19)
(1.03179 1.55263 -6.23285e-19)
(1.15354 1.26986 7.07144e-19)
(0.887897 1.75399 -1.42256e-19)
(0.971429 1.73137 8.87122e-19)
(0.608662 0.337044 7.89975e-21)
(0.578791 0.292694 0)
(1.26529 0.631941 0)
(0.597693 0.350473 3.51845e-20)
(0.537938 0.331729 -3.6507e-20)
(0.952537 -0.00512721 0)
(0.997968 0.000423 0)
(0.999629 0.00208643 0)
(0.97468 -0.0304204 0)
(0.999986 -0.00479612 0)
(1.00482 -0.000343703 0)
(0.00901442 1.62276 -4.94719e-19)
(0.00205898 1.76833 0)
(0.0598414 1.73341 0)
(0.00369809 1.76645 0)
(0.00609332 1.67764 0)
(0.00299782 1.66396 0)
(0.0108654 1.72266 0)
(0.014522 1.67589 0)
(0.00667356 1.72166 0)
(0.0114414 1.66812 0)
(0.966371 -0.00857999 0)
(0.952034 0.0100692 0)
(0.914323 0.0108299 0)
(0.93315 0.0134743 0)
(0.910096 -0.00564095 0)
(0.0146253 3.00051 7.17429e-19)
(0.0113465 3.00786 0)
(0.0060586 3.00264 0)
(0.0137492 2.99712 7.96586e-24)
(0.00836376 2.95881 -1.06628e-18)
(0.0151966 2.9823 0)
(0.013605 2.90238 0)
(0.00567995 2.93655 1.46943e-24)
(-0.00964469 2.83679 0)
(0.0123652 2.92929 0)
(-0.0274466 2.78655 0)
(0.212076 3.46691 0)
(-0.12323 3.54262 0)
(0.106261 3.25256 1.12901e-18)
(-0.0126819 3.01102 0)
(0.00462141 1.74771 0)
(0.00309985 1.72061 2.39306e-20)
(0.0183198 1.66949 -3.60108e-20)
(0.733932 0.173843 -2.10125e-19)
(0.709123 0.111988 -2.1346e-19)
(0.727912 0.212782 -6.3237e-19)
(0.669761 0.192283 -4.14558e-19)
(0.189971 1.34443 0)
(0.357292 2.03879 -6.33838e-19)
(0.476619 2.01473 1.08489e-18)
(0.978372 0.019635 0)
(0.934893 0.0167087 0)
(1.00284 -0.00171738 0)
(0.985594 0.0233239 0)
(0.999034 0.0219747 -1.48749e-18)
(0.991201 0.0382264 1.14696e-18)
(0.00270647 1.7285 0)
(-0.0040103 1.68688 0)
(0.00160908 1.74378 0)
(0.0105183 1.73184 0)
(0.0125769 1.68183 0)
(0.301831 0.437512 1.58684e-19)
(0.450306 0.351375 0)
(0.989398 0.0101249 0)
(0.96007 0.0150533 0)
(0.925961 -0.00627282 0)
(0.9085 0.0187319 0)
(0.904348 -0.00396736 0)
(1.09157 -0.00495423 0)
(0.846366 0.0673606 0)
(0.768866 0.0288407 8.7793e-19)
(-0.041223 2.86115 3.10236e-19)
(0.0330827 2.92938 0)
(0.0623255 2.89918 0)
(-0.00760793 2.7334 0)
(-0.0160259 2.98866 6.24084e-19)
(-0.0254411 2.89981 0)
(-0.0148403 2.9918 -1.96337e-18)
(-0.00938943 2.93102 6.76043e-19)
(2.0654e-05 1.76984 0)
(0.00227558 1.76314 0)
(-0.00812382 1.71798 -2.87558e-22)
(0.000991387 1.70563 0)
(-0.0108047 1.65327 0)
(0.989732 0.00869989 0)
(0.962323 0.00351822 0)
(0.936975 -0.00648036 0)
(0.986182 0.0134929 0)
(0.959101 0.0105551 0)
(0.51957 0.826629 1.35867e-19)
(0.325296 0.714264 0)
(0.610543 0.791788 -5.09553e-21)
(0.43237 0.500635 0)
(1.09211 1.31926 -1.89155e-19)
(1.20883 1.00866 3.96066e-19)
(0.561636 2.02578 0)
(0.723721 1.93024 0)
(0.769513 1.92402 0)
(0.576747 1.11574 -3.45014e-19)
(0.648726 0.31495 0)
(0.628029 0.240532 1.11046e-19)
(1.15761 1.08302 0)
(1.20243 0.886026 0)
(1.22408 0.808602 -3.29692e-19)
(1.23121 0.688646 0)
(1.27922 0.435796 5.83829e-20)
(0.984928 -0.000706992 0)
(0.980566 -0.00427012 0)
(0.951078 -0.01335 0)
(0.974054 0.0133295 0)
(0.979274 0.00576618 0)
(0.945641 0.0137773 0)
(0.999653 0.00193322 0)
(0.995926 0.00184266 0)
(0.999532 0.00122703 0)
(0.0168816 1.64789 2.66527e-19)
(0.0578353 1.57091 0)
(-0.0153599 1.66366 2.12407e-19)
(-0.0146842 1.61007 -3.8252e-19)
(0.183925 1.92372 -5.20037e-19)
(0.0511961 1.7986 0)
(0.113897 1.80448 0)
(0.013254 1.74439 0)
(-0.0112453 1.6732 0)
(0.00102603 1.69673 -1.25176e-21)
(-0.00610493 1.65505 0)
(-0.00441943 1.71242 -6.038e-20)
(-0.00949062 1.66845 -2.44053e-21)
(-0.0252349 1.73393 0)
(-0.0044715 1.73644 0)
(-0.0165362 1.67249 0)
(0.000651272 1.72179 0)
(-0.00216604 1.67636 0)
(1.01127 0.00859748 0)
(0.98672 0.0151712 0)
(1.00329 0.00784188 0)
(0.965982 0.0108731 0)
(0.940228 -0.00746881 0)
(0.974633 -0.00110871 0)
(0.966435 0.013774 0)
(0.939988 -0.00850609 0)
(0.00543445 3.06495 -6.28649e-21)
(0.0187744 3.05873 0)
(0.0156155 2.96879 0)
(0.0125035 2.8749 0)
(0.718957 3.74467 0)
(0.978501 2.98668 8.80445e-19)
(0.0719285 3.10947 0)
(-0.0179196 2.90624 0)
(-0.00289236 1.75129 0)
(0.00494662 1.74972 0)
(0.002739 1.74868 0)
(0.0112438 1.78101 5.2226e-21)
(0.00783785 1.74691 0)
(0.00421188 1.76369 0)
(-0.0133434 1.67646 -1.44682e-21)
(-0.0119055 1.72021 4.2567e-20)
(0.0147293 1.7254 3.65575e-20)
(0.0111634 1.6735 0)
(0.762699 0.127408 3.26146e-19)
(0.726274 0.0696394 -3.14219e-19)
(0.174651 1.41892 0)
(0.280702 1.3236 -2.1772e-19)
(0.128226 1.42442 -6.45054e-19)
(0.148462 1.38491 6.43908e-19)
(0.94381 -0.00950898 0)
(0.973819 -0.00434792 0)
(0.963376 -0.00422977 0)
(0.935413 0.00312517 0)
(0.00341422 1.72268 0)
(-0.00663818 1.71973 0)
(-0.000316014 1.67194 0)
(0.557462 0.379747 3.143e-19)
(0.498325 0.400089 -3.84327e-19)
(0.506762 0.337687 0)
(1.19368 0.0829916 5.92335e-21)
(1.19255 0.037203 0)
(1.11741 0.0380711 0)
(1.04023 0.0107964 0)
(0.782716 0.094007 0)
(0.799184 0.0603218 -1.41756e-18)
(0.749953 0.021059 5.42077e-19)
(-0.00422764 2.98116 4.38863e-19)
(-0.0454882 2.86282 6.13758e-20)
(0.00750665 3.04642 -1.31297e-20)
(0.0182954 3.04448 4.8579e-19)
(-0.0138518 2.99627 2.26138e-20)
(-0.0129749 2.95168 -9.22502e-23)
(-0.0167611 3.01136 -4.32412e-19)
(0.0138659 3.02476 2.97564e-19)
(0.00733902 3.03277 -4.63038e-19)
(0.997416 0.0183639 0)
(1.00322 0.00231398 0)
(0.958348 0.0174366 0)
(0.979754 -0.0170708 0)
(0.983516 -0.00186912 0)
(0.948051 -0.018697 0)
(0.973572 0.00785034 0)
(0.973482 0.00151453 0)
(0.943782 0.00707495 0)
(0.496019 0.980841 3.51917e-19)
(0.480488 1.05379 0)
(0.580149 0.862659 9.11908e-20)
(0.638029 1.01013 6.14898e-19)
(0.638733 0.880425 -2.79533e-19)
(0.520651 0.672027 5.00257e-19)
(0.491249 1.29365 1.68385e-18)
(0.492199 1.18362 3.39881e-19)
(0.695239 0.247542 -4.29592e-19)
(0.67759 0.271863 1.05164e-19)
(0.659335 0.214906 2.14104e-19)
(1.26451 0.498409 1.94338e-19)
(1.28731 0.281754 2.22214e-19)
(-0.00633993 1.667 1.78954e-19)
(0.0151187 1.62664 0)
(1.06279 0.0233417 0)
(1.03823 0.0150515 0)
(1.01357 -0.00263407 0)
(0.0130976 3.07153 0)
(0.00767694 2.94363 8.549e-19)
(0.0135808 2.95376 0)
(0.00276937 2.85061 -8.48614e-19)
(0.0112511 3.08877 2.02944e-19)
(0.00922583 3.07811 0)
(0.487472 1.38505 -1.92553e-19)
(0.945635 2.13505 4.2828e-19)
(0.466532 1.56348 -1.16931e-18)
(0.0184917 2.99209 -2.88242e-19)
(0.0438117 3.02538 0)
(-0.0255931 2.87369 0)
(0.00345187 1.70671 -7.53012e-21)
(-0.000717506 1.73114 -6.63824e-22)
(0.0144366 1.68527 -8.10959e-21)
(0.252314 1.3788 6.84711e-19)
(0.341702 1.29659 -4.71989e-19)
(0.0468132 1.58386 4.34635e-19)
(0.0786792 1.49625 -5.16915e-19)
(0.0824485 1.46287 4.7658e-20)
(0.0196589 3.09909 -1.1114e-18)
(0.025219 3.1066 1.23145e-18)
(-0.0221254 2.98364 5.50428e-19)
(-0.017111 2.97323 -4.89138e-19)
(-0.0367019 2.87961 -5.60627e-19)
(0.0197634 3.09518 -1.49669e-18)
(0.0195 3.09666 1.52795e-18)
(0.553927 1.20775 0)
(0.596716 1.13317 -1.56412e-18)
(0.590163 1.02228 7.06938e-19)
(0.415487 1.30011 9.34937e-19)
(0.458879 1.19612 -1.45893e-18)
(1.26485 0.170631 -1.68331e-20)
(1.2661 0.312272 0)
(1.26813 0.125952 7.84615e-20)
(-0.00656493 1.70481 -1.4846e-21)
(0.0127359 1.68863 0)
(0.0111972 1.65362 0)
(0.315005 1.34731 -2.42068e-19)
(0.379456 1.32835 -6.03655e-19)
(0.403618 1.23854 1.09081e-18)
(0.998916 -0.0408125 0)
(1.00548 -0.0507451 2.73934e-19)
(-0.00109921 1.7698 0)
(-0.00450549 1.77643 0)
(1.00901 0.0100479 6.12744e-21)
(0.990542 0.0119223 5.61834e-19)
(0.00885438 1.77826 -6.75182e-21)
(0.00411024 1.77883 0)
(0.066703 3.22053 8.04962e-21)
(0.31699 3.57364 0)
(1.06295 0.674581 -5.34587e-21)
(1.01005 -0.0112321 -1.64543e-21)
(1.01163 0.00619391 0)
(1.00987 -0.00478598 -2.35219e-21)
(0.0398774 1.84764 0)
(0.0742094 1.68521 0)
(0.00920426 1.79068 0)
(0.0102069 1.75741 8.33893e-20)
(0.0236244 1.75397 4.53141e-20)
(0.992458 0.00172934 6.49419e-22)
(1.04261 -0.00571515 0)
(1.05681 0.0255219 0)
(-0.0012747 1.75009 0)
(-0.016347 1.78584 0)
(-0.0101417 1.78076 0)
(0.239982 1.96085 -2.52968e-19)
(0.983824 -0.0302586 0)
(0.981633 -0.0226383 0)
(1.01791 -0.00908646 3.61619e-19)
(1.01781 -0.0148808 -4.09095e-19)
(1.01473 -0.00887298 0)
(-0.00863216 1.74937 0)
(0.00547066 1.75999 0)
(-0.00314351 1.75517 0)
(-0.00387132 1.7846 0)
(-0.000816906 1.77584 0)
(-0.0056777 1.78076 0)
(1.02037 0.00681323 0)
(1.01551 -0.00350592 -1.32107e-21)
(0.746331 1.54003 3.20967e-19)
(1.01094 -0.00494349 -3.53013e-19)
(1.02624 0.014932 4.22832e-19)
(0.99842 0.00100689 0)
(1.01362 -0.000804472 3.42686e-19)
(0.991112 0.014567 -4.2653e-19)
(0.989229 0.0214019 0)
(-0.017565 1.78606 0)
(-0.00635222 1.77938 1.29079e-20)
(-0.0102305 1.78281 -7.68539e-21)
(1.1703 0.252017 1.51997e-19)
(1.09842 0.0618129 0)
(0.142466 3.05867 -5.3766e-19)
(0.0838859 2.86199 -4.86368e-20)
(0.2164 3.23964 6.5981e-19)
(0.165925 3.28817 7.24265e-20)
(0.172025 3.31121 0)
(0.0345955 3.13988 9.99891e-20)
(0.113377 3.17633 5.25542e-19)
(0.103703 3.22193 -1.98618e-19)
(0.0645107 3.10118 0)
(0.704093 0.346255 0)
(0.638312 0.408771 0)
(1.00903 0.688394 -1.4182e-20)
(1.10068 0.826746 -5.66601e-21)
(1.12092 0.526477 0)
(1.17212 0.515226 0)
(1.01902 -0.00626685 -6.44116e-19)
(1.01884 -0.007088 -2.90348e-21)
(1.01824 0.0133728 0)
(1.01539 0.0142122 0)
(1.00691 0.0113458 0)
(1.02022 -0.00381453 0)
(1.01387 -0.00375021 0)
(1.03057 -0.0124295 0)
(1.02249 0.0148239 0)
(1.02647 0.0128284 0)
(0.0380827 1.84536 0)
(0.0251641 1.85044 0)
(0.0429038 1.86635 0)
(0.0489193 1.88197 0)
(0.0928215 1.6773 0)
(0.106549 1.66635 -2.94395e-19)
(0.0399476 1.71379 0)
(0.011907 1.70133 1.59694e-19)
(0.035345 1.76081 -1.49201e-19)
(0.00547528 1.79023 0)
(-0.0101098 1.78493 0)
(0.0135557 1.79121 0)
(0.00743671 1.80553 0)
(-0.00319454 1.75461 -5.52251e-20)
(0.013757 1.7591 6.1134e-20)
(0.00794665 1.76318 8.00087e-20)
(0.0162761 1.76583 0)
(0.0182133 1.77188 -9.73167e-20)
(0.00459307 1.76878 -6.3198e-20)
(0.00238251 1.74364 4.20763e-20)
(0.0115683 1.75271 -7.97875e-20)
(0.00819181 1.75738 -9.39662e-20)
(1.00142 0.0145316 6.11979e-19)
(1.00356 0.015555 9.66747e-22)
(0.995072 0.00406514 -6.31288e-19)
(0.961998 -0.000680622 8.13795e-19)
(1.03804 -0.000867567 0)
(1.04831 -0.0135136 0)
(1.04667 0.0286493 0)
(1.05375 0.0153269 0)
(1.06322 0.0269679 0)
(1.07434 0.0660855 0)
(1.06788 0.0324537 0)
(1.0852 0.0393147 0)
(0.00162185 1.76955 -2.52294e-21)
(-0.0119188 1.75368 0)
(0.00626349 1.75323 0)
(-0.00533538 1.78417 1.83382e-20)
(-0.0118019 1.78735 -7.8011e-22)
(-0.00383801 1.71836 2.24581e-20)
(-0.00332382 1.73882 -2.29587e-20)
(0.00621189 1.76469 0)
(0.00802115 1.75818 0)
(0.00512665 1.7581 0)
(-0.0115957 1.77876 0)
(-0.0126534 1.77522 0)
(0.38196 1.92575 3.91458e-19)
(0.381564 1.94242 1.98261e-19)
(0.283288 1.53395 -1.70634e-19)
(0.123554 1.5486 4.45831e-19)
(0.290568 1.6323 1.14023e-19)
(1.00312 0.00778129 0)
(0.987601 -0.0107809 0)
(0.994467 0.00342698 0)
(1.03199 -0.0117448 0)
(1.01444 -0.0198342 0)
(1.01118 -0.0206805 0)
(0.983097 0.0253839 0)
(1.01615 0.0447486 0)
(1.00928 0.00744353 6.04483e-19)
(1.01669 0.0170927 -7.62457e-19)
(1.01337 -0.0126364 -6.16512e-19)
(1.01307 -0.010828 7.55996e-19)
(0.741078 1.62872 0)
(0.65739 1.73654 2.88929e-19)
(0.842093 1.42293 1.12494e-19)
(0.878608 1.35752 -1.49216e-19)
(0.842311 1.91348 -3.31135e-19)
(0.84733 0.117332 3.33883e-19)
(1.10834 0.0848917 0)
(1.12834 0.160876 -1.24293e-19)
(1.13 0.134581 -4.36306e-21)
(0.963916 0.130514 0)
(0.280693 3.07547 -3.83972e-19)
(0.211841 2.88806 -6.44988e-19)
(0.153478 2.24983 5.44501e-19)
(0.169117 0.276323 -1.81457e-19)
(0.236193 3.49834 -6.26702e-19)
(0.184502 3.42696 0)
(0.214972 3.45256 8.17055e-19)
(0.301478 3.23545 5.7134e-19)
(0.367976 3.36727 0)
(0.0171103 3.10504 2.84366e-20)
(0.0312745 3.12089 -3.5722e-19)
(0.0322137 3.11013 5.25864e-19)
(0.0534294 3.13845 0)
(0.0571346 3.15452 0)
(0.771986 2.17393 0)
(0.275625 0.556648 4.28161e-20)
(1.01656 1.1166 -4.54476e-20)
(0.928983 1.14428 0)
(0.686578 1.04681 -7.04901e-20)
(0.948638 0.901275 1.93702e-20)
(0.527369 0.630979 -3.09577e-19)
(0.70736 0.339303 -2.27911e-20)
(0.703485 0.319031 2.19888e-19)
(0.626833 0.421819 1.46765e-20)
(0.61206 0.421225 -6.02046e-19)
(0.705328 0.354092 0)
(0.696705 0.404965 3.1743e-19)
(0.702602 0.396497 0)
(0.662272 0.382659 0)
(0.66981 0.354344 0)
(0.6982 0.613775 1.7556e-19)
(1.17337 0.274956 -4.89895e-20)
(1.16217 0.40694 0)
(1.16865 0.387166 0)
(0.788088 0.23203 3.56589e-19)
(0.761392 0.478779 -1.87451e-19)
(0.713426 0.450866 -3.1273e-19)
(0.855757 0.413881 -3.45554e-19)
(1.01356 0.0183917 4.18033e-19)
(1.01981 -0.00821737 -4.33205e-19)
(1.01533 0.0102168 0)
(1.01685 0.000691115 0)
(1.02345 -0.0104111 -4.03722e-19)
(1.02133 -0.0155311 3.98202e-19)
(1.00692 -0.00336455 0)
(1.00057 -0.00288518 0)
(1.02197 -0.00779858 0)
(1.01979 -0.009762 0)
(1.00606 -0.00460853 0)
(1.00771 0.00575472 0)
(0.0238773 1.84451 0)
(0.0218314 1.83807 0)
(0.0888004 1.82133 -9.99147e-21)
(0.242004 1.92893 1.28296e-19)
(0.105627 1.91105 2.71165e-19)
(0.142576 1.94723 -1.32924e-19)
(0.179327 1.86524 0)
(0.138722 1.75616 -9.72803e-20)
(0.114384 1.78604 0)
(0.273566 1.68981 -1.65112e-19)
(0.196111 1.62412 5.26291e-19)
(0.194715 1.77228 8.38105e-20)
(0.260008 1.86646 4.04973e-20)
(0.215079 1.86025 3.26525e-20)
(0.305318 1.79023 -8.5091e-20)
(0.250415 1.73716 1.09272e-19)
(0.257254 1.74888 8.21748e-20)
(0.0385223 1.75334 -5.05145e-20)
(0.042237 1.74949 0)
(0.0563541 1.72963 1.8789e-19)
(0.0541283 1.74181 0)
(0.0190688 1.71223 -1.71983e-19)
(0.0273551 1.73663 0)
(0.00364321 1.76755 -3.23844e-20)
(-0.00301645 1.76946 0)
(0.0110266 1.76492 0)
(0.0146063 1.76217 3.5754e-20)
(0.00403662 1.76063 -3.02086e-21)
(0.0128709 1.76482 1.79361e-19)
(0.00565002 1.76262 1.22285e-21)
(-0.00277211 1.74808 3.15338e-20)
(-0.00799895 1.74431 -2.34583e-20)
(-0.00933839 1.78375 0)
(-0.00805076 1.77727 0)
(0.0128405 1.74663 1.15526e-19)
(0.0260187 1.75677 8.2163e-20)
(0.0111386 1.74689 -1.18913e-19)
(0.0155392 1.7513 0)
(0.0105462 1.76841 -6.00846e-20)
(0.0174883 1.76937 3.13001e-20)
(0.0212199 1.75702 -1.06988e-20)
(0.00665194 1.74299 -3.9373e-20)
(-0.00556194 1.74786 -1.7299e-20)
(0.0152619 1.76306 5.92718e-20)
(1.01415 -0.00408163 -4.007e-19)
(1.00314 0.0243678 4.05973e-19)
(1.00762 0.0105471 0)
(0.978811 0.0525333 5.68302e-19)
(0.952829 0.0305104 -6.60952e-19)
(0.929223 0.0311104 7.5257e-19)
(0.970168 0.0467829 -7.52704e-20)
(1.03526 0.00712853 0)
(1.04397 -0.0154891 3.74084e-19)
(1.0329 -0.0119992 -3.69899e-19)
(1.00373 0.0242481 -2.09083e-20)
(1.01604 0.0197405 1.81549e-19)
(0.99277 0.0507206 0)
(0.984616 0.0404657 -6.65519e-20)
(1.01303 0.04094 0)
(1.00135 0.0301261 0)
(1.00995 0.00805806 0)
(1.01476 0.00653033 0)
(1.01156 0.0227923 1.36114e-19)
(1.00055 0.00475211 -2.98993e-19)
(0.953584 0.00783621 -1.44863e-19)
(0.971801 0.014265 -1.59999e-19)
(0.991348 0.0634739 3.00552e-19)
(1.04718 0.0660881 0)
(1.02423 0.0812114 0)
(-0.0070169 1.77017 -3.59349e-20)
(-0.0226687 1.76055 -2.28301e-21)
(-0.0144204 1.7559 0)
(-0.0163132 1.77904 3.4096e-20)
(-0.0023655 1.77597 4.51929e-21)
(-0.0114818 1.78246 -4.05853e-21)
(0.00336783 1.76837 5.08998e-20)
(0.00601197 1.75248 -2.95364e-21)
(-0.0071705 1.74871 2.17197e-20)
(0.00485887 1.78735 -2.6529e-20)
(0.000462726 1.76653 -1.01116e-20)
(0.0105294 1.73142 1.78282e-21)
(0.00557756 1.71367 2.50234e-20)
(0.363429 1.80809 -1.48565e-19)
(0.303705 1.79256 1.11049e-19)
(0.660109 1.80618 -2.78288e-19)
(0.531142 1.89982 -1.91227e-19)
(0.549559 1.87681 0)
(0.324204 1.5334 1.76502e-19)
(0.364313 1.52261 2.49585e-19)
(0.169984 1.55343 3.79198e-20)
(0.170419 1.54782 -5.99495e-19)
(0.22698 1.55242 4.93229e-19)
(0.257215 1.5568 0)
(0.185317 1.54978 -3.77427e-19)
(0.135186 1.63352 7.38524e-19)
(0.132352 1.57631 -5.30844e-20)
(0.104795 1.60759 -1.01405e-18)
(0.68389 1.47487 9.71847e-19)
(0.475283 1.50673 0)
(1.02922 -0.00397375 1.22169e-20)
(1.02622 0.0506546 -1.05679e-20)
(1.01391 0.0334066 -1.93353e-19)
(1.00353 0.0159157 2.03243e-19)
(1.01258 0.0133108 0)
(0.557688 1.60088 0)
(0.471354 1.49627 0)
(0.601067 1.23869 0)
(0.411037 1.44582 0)
(0.832463 1.85875 1.80136e-19)
(0.917433 1.67604 0)
(0.621899 1.76467 6.85041e-21)
(0.506486 1.61477 0)
(0.60057 1.58862 -6.78385e-19)
(0.62233 1.63589 0)
(0.862626 0.14463 0)
(0.836571 0.156663 9.22491e-20)
(0.91013 0.101095 5.00636e-19)
(0.862164 0.100769 -1.89185e-19)
(0.860445 0.0651246 -6.14253e-19)
(0.984094 0.197755 -3.94883e-19)
(0.927296 0.26603 -1.29735e-20)
(0.835886 0.262401 4.3638e-19)
(0.918241 0.216719 3.79127e-19)
(0.926582 0.13227 -6.37945e-19)
(0.89961 0.149368 8.11595e-20)
(0.834309 0.237831 -1.73791e-19)
(0.895876 0.198201 0)
(0.955548 0.159819 -3.09975e-19)
(0.949762 0.161072 0)
(0.949224 0.205888 0)
(1.06334 0.108569 1.37302e-19)
(0.966422 0.160708 -1.09376e-20)
(0.984437 0.187367 -2.12005e-19)
(1.01909 0.209022 0)
(1.01118 0.0473595 3.04991e-19)
(1.00748 0.0467838 3.80938e-19)
(1.01224 0.0522741 -2.9549e-19)
(1.01402 0.0574178 -2.58977e-19)
(0.983899 0.0629002 -4.07823e-19)
(0.960301 0.0726833 0)
(0.951811 0.0435372 0)
(0.923914 0.0705438 -2.67803e-19)
(0.909697 0.0697423 1.08326e-19)
(1.0065 0.0747358 3.48403e-19)
(0.985502 0.0859477 -3.94631e-19)
(0.988908 0.0982884 3.48521e-19)
(0.984878 0.107379 0)
(0.991426 0.076216 0)
(0.994856 0.0749004 -1.65411e-19)
(1.00639 0.0797648 -2.81996e-19)
(0.309106 1.73618 3.03875e-19)
(0.352342 2.10521 -2.94086e-19)
(0.673923 2.27666 -1.35536e-19)
(0.704824 2.85122 -6.5175e-20)
(0.881572 2.16022 4.97412e-19)
(0.885008 2.26156 -3.55428e-19)
(0.896035 1.72625 -1.51011e-20)
(0.703523 2.61634 8.84183e-20)
(0.780839 2.45846 1.90337e-20)
(0.721093 3.04878 -2.34778e-19)
(0.943008 2.64828 3.19743e-19)
(0.957827 2.62875 0)
(0.204594 0.563798 -2.65327e-21)
(0.540747 1.46275 1.0182e-19)
(0.761674 0.542518 2.32271e-19)
(0.74094 0.427599 3.50453e-19)
(0.605666 0.439898 3.32245e-19)
(0.617129 0.43987 -4.25629e-19)
(0.600317 0.480522 3.13908e-19)
(0.608377 0.466169 -1.54255e-19)
(0.564114 0.482392 4.11161e-19)
(0.786562 0.262839 6.11474e-19)
(0.745715 0.292664 0)
(0.758532 0.26537 1.00185e-20)
(0.654942 0.46764 1.6291e-19)
(0.655159 0.419972 -5.96556e-19)
(0.615842 0.434602 1.92989e-20)
(0.635116 0.43882 0)
(0.459072 0.675692 1.10634e-19)
(0.675568 0.813896 2.11716e-19)
(0.564668 0.805414 -2.40386e-19)
(0.69111 0.820428 -8.31104e-20)
(0.791966 0.884347 -2.10948e-20)
(0.788042 0.887936 2.14352e-20)
(0.796361 0.567953 -3.08872e-19)
(0.815227 0.645845 7.78459e-20)
(0.879989 0.722679 0)
(0.876581 0.696317 -8.44523e-20)
(0.940729 0.291684 1.00069e-19)
(1.07774 0.2769 8.93142e-20)
(1.00489 0.235277 1.59404e-19)
(0.911807 0.374972 -2.14216e-19)
(0.977479 0.394654 0)
(0.997901 0.390508 0)
(0.853193 0.341076 1.30081e-20)
(0.788226 0.296572 0)
(0.808682 0.286945 2.20923e-19)
(0.85179 0.271168 -1.59576e-20)
(0.847015 0.409211 9.33935e-19)
(0.830104 0.447943 2.6017e-19)
(0.81704 0.427208 -2.8203e-19)
(0.749217 0.378734 -2.99387e-19)
(0.733728 0.389392 1.81563e-19)
(0.709228 0.403461 -1.77402e-19)
(0.990059 0.0147046 3.43046e-19)
(1.00193 -0.014686 0)
(1.00767 -0.000496533 2.26312e-19)
(1.00614 0.0045707 -1.23133e-21)
(1.01085 -0.00406488 2.41481e-19)
(1.01602 0.0269266 -5.11134e-19)
(1.00728 0.00297985 0)
(0.996842 -0.0137291 -1.07528e-19)
(1.00565 0.00971491 2.71506e-19)
(1.00572 0.00715972 -1.38514e-19)
(0.997892 -0.00824932 1.02022e-19)
(0.00797677 1.81017 0)
(0.0129259 1.77132 0)
(0.0146139 1.83445 0)
(0.0112296 1.82459 0)
(0.0448899 1.76224 8.41682e-20)
(0.0427479 1.78017 -3.18875e-20)
(0.0786399 1.77625 -3.19351e-20)
(0.0579627 1.76551 -9.57278e-21)
(0.0333888 1.76367 -6.91808e-20)
(0.0272777 1.7655 5.16511e-20)
(0.0441362 1.76959 -3.71152e-20)
(0.0255849 1.79199 1.03472e-20)
(0.02514 1.78616 -4.96118e-22)
(0.0135119 1.771 7.43163e-21)
(0.0506447 1.7214 -1.94532e-19)
(0.0456904 1.70801 0)
(0.0705743 1.70028 1.29229e-19)
(0.0862132 1.77524 7.57196e-20)
(0.214257 1.69771 -8.78619e-20)
(0.171725 1.66537 0)
(0.16862 1.63277 -5.58912e-19)
(0.197075 1.65433 3.98571e-19)
(0.151166 1.71806 -3.20356e-19)
(0.110833 1.69136 1.33424e-19)
(0.102932 1.66804 0)
(0.0122081 1.74545 -1.37584e-19)
(0.00247144 1.75065 -1.66747e-19)
(0.00604628 1.74737 0)
(0.00874875 1.74803 -3.85212e-21)
(0.0175958 1.74428 7.17731e-20)
(0.00693121 1.78444 5.16437e-21)
(0.00591882 1.78782 -6.76815e-20)
(-0.00190817 1.78543 9.81709e-21)
(-0.00216145 1.77076 3.3402e-20)
(0.011186 1.77025 0)
(-0.00117432 1.78616 0)
(0.000462409 1.77974 2.8353e-20)
(0.000310476 1.78596 -8.43835e-21)
(0.0026121 1.78538 0)
(0.00368179 1.7786 2.35998e-20)
(0.00593832 1.77542 -4.51369e-20)
(0.984763 0.0189589 0)
(1.0091 0.041363 -3.30645e-20)
(1.01301 0.00302658 -2.31491e-19)
(0.997682 0.00739595 0)
(1.02199 0.0343303 0)
(0.996853 -0.00467025 -1.37079e-20)
(0.985253 0.00418053 3.83776e-19)
(1.00024 0.0104203 4.68874e-19)
(1.00609 0.0175148 0)
(1.00237 0.0121462 0)
(1.00045 0.00771971 2.4351e-19)
(1.00526 0.0112344 0)
(0.99795 0.0154012 0)
(0.03436 1.7576 0)
(0.0188708 1.72538 -7.03163e-22)
(0.0196841 1.76531 1.31319e-20)
(-0.000144367 1.77978 0)
(0.0148816 1.72256 1.97144e-20)
(0.0055867 1.73671 -9.08322e-21)
(-0.00811447 1.78138 0)
(0.389171 1.66959 0)
(0.331852 1.75146 -2.65026e-19)
(0.322204 1.71308 0)
(0.45472 1.7584 4.85712e-20)
(0.478588 1.80101 0)
(0.444329 1.7928 -4.92744e-20)
(0.693112 1.55412 -2.01384e-20)
(0.734136 1.48101 -1.17629e-18)
(0.785314 1.45826 1.23147e-18)
(0.508784 1.5128 2.7343e-19)
(0.506483 1.53428 0)
(0.547218 1.52371 0)
(0.636574 1.49631 0)
(0.577031 1.49439 -9.9144e-19)
(0.367943 1.58138 -5.19733e-19)
(0.465253 1.53672 -1.32808e-19)
(0.495758 1.5728 1.08178e-19)
(0.399503 1.50849 0)
(0.457765 1.51993 0)
(0.414223 1.51448 -2.85985e-19)
(0.443188 1.5611 0)
(0.257822 1.37186 0)
(-0.126746 1.21316 -1.68041e-19)
(0.171054 0.838329 -1.70315e-20)
(0.0517344 1.61509 0)
(-0.0631331 1.65932 3.03116e-19)
(0.579652 0.845216 -8.5347e-20)
(0.593004 1.11971 0)
(0.638828 1.04335 1.22364e-19)
(0.378012 1.07193 0)
(0.403237 0.991829 0)
(0.822989 1.90735 -1.80995e-19)
(0.717375 2.1199 -2.52545e-19)
(0.591979 2.01619 4.89348e-19)
(0.642789 1.89274 -1.27946e-19)
(0.85747 1.75416 0)
(0.858677 1.71568 1.85018e-19)
(0.915731 1.61343 -2.0238e-19)
(0.925206 1.50434 -1.24961e-20)
(0.540213 1.70963 0)
(0.406925 1.73163 -2.66199e-19)
(0.429426 1.66916 0)
(0.865879 0.210492 0)
(0.834101 0.158276 0)
(0.798551 0.17572 0)
(0.842058 0.22113 -3.47303e-19)
(0.800539 0.218886 2.12575e-19)
(0.903221 0.0689026 -2.25432e-19)
(0.926608 0.0836184 0)
(0.917886 0.0847367 9.79285e-20)
(0.873301 0.0585288 3.88476e-19)
(0.87736 0.0624704 -2.43336e-19)
(0.778044 3.25616 -6.70526e-19)
(0.751066 3.18177 0)
(0.814681 3.26604 -1.79777e-18)
(0.382684 3.54383 1.69604e-18)
(0.462547 3.27873 7.81034e-19)
(0.0993711 0.895945 -5.1192e-19)
(-0.172419 1.38031 0)
(0.442328 0.360755 6.76145e-22)
(0.476636 0.380878 6.90294e-20)
(0.713006 0.373737 -8.62924e-20)
(0.680771 0.468538 2.30514e-20)
(0.634365 0.474241 1.75545e-19)
(0.644263 0.474364 0)
(0.641221 0.47474 0)
(0.639143 0.425922 0)
(0.958954 0.562492 8.16053e-21)
(0.814608 0.45588 -2.54306e-19)
(0.806268 0.526694 1.94222e-19)
(0.857339 0.476825 -1.95477e-19)
(1.01841 0.439888 0)
(1.05985 0.518713 -3.91415e-20)
(0.757992 0.359426 -4.29244e-19)
(0.767666 0.351561 6.8006e-19)
(0.733014 0.372516 3.36185e-19)
(0.750525 0.335709 -3.52039e-19)
(0.77306 0.303158 -2.74177e-19)
(0.757502 0.312653 3.36577e-19)
(1.01466 -0.00625016 -2.52377e-19)
(1.01871 -0.00196527 5.03132e-19)
(0.99347 0.0277338 3.2805e-19)
(1.0015 0.0386396 -3.86079e-19)
(0.977106 0.0249678 0)
(0.979758 -0.00129061 -6.17068e-19)
(0.0516299 1.77833 2.87532e-20)
(0.0424745 1.75005 0)
(0.073839 1.77523 2.56164e-19)
(0.0761062 1.77654 -2.33085e-19)
(0.0708626 1.77256 5.83052e-20)
(0.0486007 1.73608 0)
(0.0201249 1.73581 0)
(0.00805277 1.77444 -7.4717e-21)
(0.0010308 1.77604 6.79468e-21)
(0.0110693 1.75499 -2.19259e-21)
(0.0226679 1.74204 -1.50213e-20)
(0.00852238 1.73693 -2.21712e-20)
(0.502253 1.65926 -6.54363e-19)
(0.471296 1.64342 -7.3742e-19)
(0.455647 1.70792 -1.77637e-19)
(0.461147 1.68095 2.8175e-20)
(0.572859 1.66513 0)
(0.547614 1.76412 9.07612e-20)
(0.559813 1.72486 -8.9598e-20)
(0.484435 1.72563 1.71187e-19)
(0.511241 1.67694 0)
(0.493075 1.68319 0)
(0.361919 1.55287 7.99166e-19)
(0.390937 1.52011 1.1823e-18)
(0.408495 1.5594 -8.09119e-19)
(0.335013 1.53329 -1.493e-19)
(0.299176 1.54507 2.52415e-19)
(0.230016 1.54021 -6.33277e-19)
(0.827725 1.44185 -6.76696e-19)
(0.903605 1.46123 0)
(0.86707 1.44053 -6.83089e-19)
(0.798073 1.61598 0)
(0.801177 1.57157 0)
(0.199588 2.90397 6.01782e-19)
(0.492094 3.13372 6.00803e-19)
(0.451989 3.20987 -7.49318e-19)
(0.52213 1.38919 0)
(0.403618 1.12695 2.41698e-19)
(0.126394 1.22542 1.04989e-18)
(0.182658 2.81234 0)
(0.352223 3.12136 -5.56161e-19)
(0.379215 2.97977 0)
(0.500917 0.502419 -2.47038e-19)
(0.649556 0.650925 4.13546e-19)
(0.687215 0.627471 2.58868e-19)
(0.60178 0.464685 3.176e-20)
(0.661411 0.502895 -1.48502e-19)
(0.418069 2.96648 -4.70432e-19)
(0.435279 2.74381 2.22275e-19)
(0.200429 2.73724 -4.64486e-19)
(0.0892028 2.58008 2.32609e-19)
(0.207547 2.29302 -4.55856e-19)
(0.350448 2.64541 -2.07997e-19)
(0.398284 2.29683 1.27094e-19)
(0.0535199 2.5032 9.64726e-22)
(0.100767 2.39162 5.37782e-19)
)
;

boundaryField
{
    wall-4
    {
        type            noSlip;
    }
    velocity-inlet-5
    {
        type            fixedValue;
        value           uniform (1 0 0);
    }
    velocity-inlet-6
    {
        type            fixedValue;
        value           uniform (0 3 0);
    }
    pressure-outlet-7
    {
        type            zeroGradient;
    }
    wall-8
    {
        type            noSlip;
    }
    frontAndBackPlanes
    {
        type            empty;
    }
}


// ************************************************************************* //
