/*--------------------------------*- C++ -*----------------------------------*\
| =========                 |                                                 |
| \\      /  F ield         | OpenFOAM: The Open Source CFD Toolbox           |
|  \\    /   O peration     | Version:  2412                                  |
|   \\  /    A nd           | Website:  www.openfoam.com                      |
|    \\/     M anipulation  |                                                 |
\*---------------------------------------------------------------------------*/
FoamFile
{
    version     2.0;
    format      ascii;
    arch        "LSB;label=32;scalar=64";
    class       volVectorField;
    location    "7";
    object      U;
}
// * * * * * * * * * * * * * * * * * * * * * * * * * * * * * * * * * * * * * //

dimensions      [0 1 -1 0 0 0 0];

internalField   nonuniform List<vector> 
38
(
(-0.0151385 3.18199 9.84808e-19)
(0.336201 3.60861 0)
(-0.128112 3.69827 0)
(0.156437 3.2745 -9.16565e-19)
(-0.00543204 2.99146 0)
(0.956459 4.05322 0)
(1.26714 3.37589 1.01601e-18)
(0.0743134 3.08418 0)
(-0.022797 2.91217 0)
(0.723732 1.83354 -2.20131e-19)
(1.26335 2.56681 5.91146e-19)
(0.72889 1.9962 -1.45439e-18)
(0.430989 3.51043 0)
(0.135088 3.23857 0)
(0.116105 2.95171 3.37702e-19)
(0.375981 3.43417 -3.49857e-19)
(0.211305 3.30881 0)
(0.256743 3.36327 4.55568e-19)
(0.261847 3.00935 -1.25244e-18)
(0.353134 3.17487 0)
(1.19157 3.43451 -3.16525e-19)
(1.35102 3.13573 4.43473e-19)
(1.37582 2.98446 0)
(0.125534 1.24765 4.60519e-19)
(1.1825 3.48937 -7.34628e-19)
(1.21702 3.45112 0)
(1.19199 3.46309 -1.46564e-18)
(0.718049 3.59266 1.51658e-18)
(0.979819 3.04298 3.12535e-19)
(0.902968 2.21799 3.6487e-19)
(1.09376 3.22781 6.45722e-19)
(0.966076 3.0009 -4.8612e-19)
(0.34889 0.977201 0)
(0.498353 0.939268 -3.39328e-19)
(0.717664 0.860415 6.63105e-19)
(0.627595 1.9222 0)
(0.539733 2.70952 -2.14487e-19)
(0.480757 2.4774 0)
)
;

boundaryField
{
    wall-4
    {
        type            noSlip;
    }
    velocity-inlet-5
    {
        type            fixedValue;
        value           nonuniform List<vector> 0();
    }
    velocity-inlet-6
    {
        type            fixedValue;
        value           nonuniform List<vector> 0();
    }
    pressure-outlet-7
    {
        type            zeroGradient;
    }
    wall-8
    {
        type            noSlip;
    }
    frontAndBackPlanes
    {
        type            empty;
    }
    procBoundary20to1
    {
        type            processor;
        value           nonuniform List<vector> 3((0.0377836 3.00455 0) (0.146774 3.20931 -7.86196e-20) (0.108927 2.85901 -8.76458e-19));
    }
    procBoundary20to7
    {
        type            processor;
        value           uniform (0.244388 0.374743 4.73197e-19);
    }
    procBoundary20to18
    {
        type            processor;
        value           nonuniform List<vector> 3((0.661857 1.49234 0) (1.12234 2.69387 0) (1.12234 2.69387 0));
    }
    procBoundary20to19
    {
        type            processor;
        value           nonuniform List<vector> 5((1.177 3.3192 -1.17543e-19) (0.655132 0.935726 2.62015e-19) (0.463613 0.628145 -9.94827e-20) (0.894034 2.34387 -3.57741e-19) (1.06871 2.89598 4.63795e-19));
    }
}


// ************************************************************************* //
