/*--------------------------------*- C++ -*----------------------------------*\
| =========                 |                                                 |
| \\      /  F ield         | OpenFOAM: The Open Source CFD Toolbox           |
|  \\    /   O peration     | Version:  2412                                  |
|   \\  /    A nd           | Website:  www.openfoam.com                      |
|    \\/     M anipulation  |                                                 |
\*---------------------------------------------------------------------------*/
FoamFile
{
    version     2.0;
    format      ascii;
    arch        "LSB;label=32;scalar=64";
    class       volVectorField;
    location    "3";
    object      U;
}
// * * * * * * * * * * * * * * * * * * * * * * * * * * * * * * * * * * * * * //

dimensions      [0 1 -1 0 0 0 0];

internalField   nonuniform List<vector> 
38
(
(0.548507 0.686297 2.8002e-20)
(0.64876 0.923598 -4.76554e-20)
(0.441131 0.798648 0)
(0.73553 0.963097 1.55909e-20)
(0.617499 0.790568 0)
(0.592713 1.03567 1.68575e-19)
(0.477359 1.0882 0)
(0.639277 1.05556 9.69786e-20)
(0.672495 1.18064 6.97528e-19)
(0.701406 1.07688 -3.73814e-19)
(0.652574 0.936872 6.9979e-19)
(0.566607 1.28849 0)
(0.626954 1.24665 -1.62886e-18)
(0.620138 1.13871 7.31627e-19)
(0.898608 1.73772 2.2017e-19)
(0.875285 1.98576 0)
(0.596952 1.47073 9.93017e-19)
(0.896668 1.68621 1.25644e-19)
(0.958381 1.56508 0)
(0.623148 1.63649 6.88526e-21)
(0.591834 1.5613 0)
(0.913301 1.91982 -7.7222e-20)
(0.906206 1.99856 -1.61339e-19)
(0.955011 1.63239 -1.05522e-20)
(0.626834 1.52242 -2.06049e-20)
(0.662868 1.48143 -1.12574e-18)
(0.714708 1.47566 1.32225e-18)
(0.865382 1.71514 -3.08704e-19)
(0.668293 1.70051 -1.68206e-19)
(0.889942 1.63234 0)
(0.818563 1.57383 2.19741e-19)
(0.952686 1.51528 -3.07439e-19)
(0.909061 1.48362 -1.80841e-20)
(0.771055 1.47602 -7.37366e-19)
(0.860318 1.47419 0)
(0.817604 1.47364 -7.29227e-19)
(0.750165 1.5281 0)
(0.712269 1.51408 0)
)
;

boundaryField
{
    wall-4
    {
        type            noSlip;
    }
    velocity-inlet-5
    {
        type            fixedValue;
        value           nonuniform List<vector> 0();
    }
    velocity-inlet-6
    {
        type            fixedValue;
        value           nonuniform List<vector> 0();
    }
    pressure-outlet-7
    {
        type            zeroGradient;
    }
    wall-8
    {
        type            noSlip;
    }
    frontAndBackPlanes
    {
        type            empty;
    }
    procBoundary18to19
    {
        type            processor;
        value           nonuniform List<vector> 4((0.830564 2.1056 3.14656e-19) (0.74893 2.23668 -1.08287e-19) (0.786656 1.85826 -2.95004e-19) (0.656099 1.75233 5.40102e-19));
    }
    procBoundary18to20
    {
        type            processor;
        value           nonuniform List<vector> 3((0.56443 1.31014 -1.56071e-19) (0.56443 1.31014 -1.56071e-19) (0.929238 2.28749 1.76285e-19));
    }
    procBoundary18to21
    {
        type            processor;
        value           uniform (0.573031 1.62047 0);
    }
    procBoundary18to23
    {
        type            processor;
        value           nonuniform List<vector> 3((0.559428 1.19437 -3.43212e-19) (0.562945 1.49184 0) (0.566765 1.53351 -6.85859e-19));
    }
}


// ************************************************************************* //
