/*--------------------------------*- C++ -*----------------------------------*\
| =========                 |                                                 |
| \\      /  F ield         | OpenFOAM: The Open Source CFD Toolbox           |
|  \\    /   O peration     | Version:  2412                                  |
|   \\  /    A nd           | Website:  www.openfoam.com                      |
|    \\/     M anipulation  |                                                 |
\*---------------------------------------------------------------------------*/
FoamFile
{
    version     2.0;
    format      ascii;
    arch        "LSB;label=32;scalar=64";
    class       volScalarField;
    location    "1";
    object      p;
}
// * * * * * * * * * * * * * * * * * * * * * * * * * * * * * * * * * * * * * //

dimensions      [0 2 -2 0 0 0 0];

internalField   nonuniform List<scalar> 
918
(
1.73207
0.757999
0.257146
1.73776
0.0288308
0.676549
-0.298811
1.24431
1.79564
0.245219
0.203689
1.46531
0.329202
0.237904
-0.33588
0.101249
1.4737
-0.427415
1.52952
0.124028
-0.000363925
1.85806
1.643
1.4878
1.46343
-0.00569489
0.377062
0.0526458
-0.0812355
-0.0248117
0.0696253
0.123761
0.0502319
0.43648
0.605423
0.707452
1.48981
0.944348
-0.0786771
-0.103395
-0.187508
-0.419362
1.28261
1.31227
0.558071
1.19293
1.12773
1.53493
1.71581
1.80318
1.64784
1.71151
1.8621
0.555979
0.223768
0.164037
0.275742
0.2566
0.300778
0.221271
0.217484
0.237601
0.22427
1.39112
1.46434
1.46464
1.47954
1.46464
0.713805
0.727118
0.823867
0.234286
0.448528
0.319931
0.425713
0.222331
0.254571
0.251829
0.245316
-0.405679
-0.847651
-0.00265913
0.0422157
-0.00154643
0.116611
0.127988
1.47351
1.48228
1.44542
1.44074
0.991667
-0.271584
-0.481904
1.54731
1.55687
1.81304
1.66087
1.6713
1.54899
0.134209
0.12689
0.100212
0.14743
0.135499
0.371623
0.607124
1.48686
1.54816
1.45386
1.47756
1.46959
1.18103
1.51935
1.49995
0.219239
0.314074
0.0789813
0.173898
0.369191
0.329736
0.439438
0.429175
-0.0860275
-0.0068328
0.124515
0.0570518
0.112406
1.48574
1.46788
1.51087
1.49426
1.51717
0.841362
0.762874
1.00976
1.07739
0.15972
0.142779
-0.351282
-0.329856
-0.50402
1.1963
1.34399
1.37502
0.372305
0.553037
0.355154
0.664697
0.650036
1.51846
1.53774
1.51816
1.55504
1.55368
1.56621
1.7251
1.70011
1.82294
0.589497
0.661924
0.552754
0.492783
-0.0851824
0.043026
-0.0850318
0.229806
0.269204
0.319299
0.33823
0.33565
0.298181
0.253692
0.243124
0.259165
0.182509
0.161742
1.38363
1.36795
1.40687
1.42317
1.48876
1.48113
1.47721
1.48906
0.441688
0.457166
0.405744
0.349103
-1.34571
-3.08666
0.0880639
0.141029
0.00440979
-0.00712928
-0.000418997
-0.0214585
-0.00389946
-0.0242179
0.222821
0.179199
0.139252
0.188875
1.48812
1.50803
0.989566
1.045
0.907553
0.908084
1.54994
1.56582
1.56754
1.56478
0.158978
0.148748
0.163376
1.05668
0.832851
0.938819
1.14268
1.0473
1.23633
1.27863
1.50099
1.49354
1.51457
0.167407
0.231828
0.641504
0.360593
0.535854
0.454739
0.379646
0.468884
0.304647
1.43042
1.46175
1.45887
1.52026
1.5239
1.53295
1.49681
1.49836
1.49363
0.595314
0.376746
1.19068
1.14652
1.09416
1.15227
1.20147
1.20422
1.42042
1.3823
1.40674
0.830125
0.819306
0.427438
0.408387
1.31719
1.34754
1.33084
0.390665
0.282381
0.392427
0.364843
0.332947
0.402992
0.372
-0.360377
0.0296077
0.209795
0.198442
0.18612
0.249789
0.280393
0.259545
1.03586
1.0909
0.696145
0.82514
0.794924
0.0597347
0.173774
0.286385
0.137858
0.20591
0.340702
0.271095
1.16764
1.16845
1.20699
1.13967
1.17184
1.00565
0.893918
0.880584
0.355542
0.377369
0.358401
1.0795
1.12055
1.1192
1.52214
1.52452
-0.0735392
0.0296949
1.62062
1.7176
-0.0767324
-0.0110286
0.218931
0.207615
0.921551
1.57402
1.5426
1.58835
0.210003
0.466637
0.194862
0.236844
0.17211
1.43375
1.38935
1.3178
-0.0255193
0.102804
0.0908902
0.0377227
1.61891
1.57363
1.63817
1.63834
1.62115
0.040418
-0.00072798
0.0448359
0.0492692
0.128793
0.154487
1.50985
1.47985
0.201978
1.63057
1.62219
1.60152
1.62064
1.63763
1.58366
0.0746981
0.0871476
0.132404
1.12858
1.22999
0.243719
-0.0514903
0.356191
0.19916
0.0889668
0.22741
0.221255
0.232083
0.176453
1.32956
1.21671
1.01803
0.804188
1.01873
0.99567
1.57952
1.58491
1.56605
1.54694
1.60832
1.51396
1.65498
1.58451
1.60901
1.66268
0.270348
0.323601
0.298635
0.147009
0.554793
0.650243
0.468031
0.525833
0.301861
0.170106
0.226783
0.178829
0.233098
0.217946
0.288641
0.260161
0.341926
0.250917
0.288146
0.176579
0.372552
0.239845
1.40441
1.45593
1.43187
1.49077
1.40722
1.44154
1.36983
1.39186
1.40361
1.29405
1.35336
1.33713
0.034648
0.0836064
0.0900618
0.12557
0.155205
0.018964
0.070662
0.0399094
0.0556472
0.0288784
0.0664301
0.0935852
0.127452
-0.0687893
0.945577
0.799266
0.392144
1.51868
1.59748
1.5442
1.61889
1.64473
1.67231
1.64403
1.58731
1.49371
1.52606
1.48848
1.50455
0.27137
0.159741
0.34161
0.37028
0.959383
1.47728
1.28054
1.19023
1.20328
1.33312
0.795736
0.53941
-0.155246
-0.494654
0.205571
0.114131
0.125181
0.424702
0.540667
0.165532
0.225712
0.329417
0.237139
0.234669
0.616468
1.26929
0.614811
0.589781
0.901775
0.824209
0.618144
1.34676
1.37209
1.17914
1.10505
1.29799
1.25557
1.26947
1.28321
1.29615
1.31442
1.15947
1.08565
1.03185
1.41864
1.30832
1.32331
1.26597
1.56554
1.59935
1.54411
1.5229
1.57746
1.50758
1.52315
1.48039
1.52622
1.57349
1.56684
1.52061
0.332296
0.27874
0.33189
0.165854
0.285476
0.161534
0.316441
0.44119
0.326374
0.453945
0.658478
0.420695
0.24127
0.368196
0.301084
0.566078
0.4699
0.428095
0.3426
0.402847
0.412708
0.443057
0.413109
0.252822
0.264113
0.332876
0.198902
0.323688
0.299137
0.388371
0.202709
0.308001
0.211677
0.165291
0.234763
0.364612
0.275422
0.294109
0.100448
0.0914912
-0.0373213
0.0549694
0.321799
0.290553
1.49696
1.46276
1.47548
1.45153
1.5101
1.47333
1.36068
1.52338
1.53143
1.49386
1.4002
1.3712
1.3675
1.37939
1.41896
1.40424
1.52527
1.51033
1.42446
1.44424
1.3571
1.38815
1.34856
1.37552
1.37355
-0.0293523
0.117026
0.040998
0.0571643
0.0970856
0.157895
0.249375
0.120433
0.233644
0.229548
0.190045
0.110574
0.148661
0.303925
0.412155
0.235781
0.0660403
-0.0166
0.954142
1.00946
0.866076
0.768075
0.843753
0.913158
0.965896
0.733205
0.734497
0.825322
1.10899
1.06455
1.56438
1.54305
1.56011
1.59281
1.55908
0.454301
0.665667
0.694062
0.903443
0.977807
0.997329
0.848
0.845596
0.893255
0.94162
1.45304
1.48272
1.45172
1.48975
1.48013
1.25029
1.35677
1.35416
1.4975
1.38583
1.38892
1.48361
1.43004
1.34232
1.34199
1.38039
1.3526
1.34413
1.32003
1.32198
1.41919
1.39168
1.41467
1.37978
1.42985
1.36116
1.45568
1.51323
1.46804
1.32267
1.32741
1.36368
1.36868
1.34704
1.35108
1.33249
0.861478
0.945664
0.866397
0.831489
0.886212
0.714714
0.688014
0.816942
0.836495
0.598851
0.508839
0.178034
1.2047
0.691711
0.519085
0.0746957
1.05519
1.12792
1.05961
0.887792
0.912449
1.39814
1.39156
1.41616
1.29029
1.24235
1.21115
1.21066
1.41311
1.16732
1.10022
1.16348
0.96884
1.04984
1.2248
1.16055
1.11163
1.14944
1.31446
1.18494
1.20099
1.29241
1.17509
1.19918
1.3007
1.35145
1.40289
1.35118
1.23257
1.285
1.26307
1.29474
1.32951
1.31713
1.52703
1.51423
1.50295
1.53064
1.50864
1.52451
1.4677
1.54008
1.5717
1.5685
1.58096
0.182987
0.268608
0.300392
0.21684
0.293513
0.275263
0.349487
0.299505
0.354747
0.387402
0.31182
0.324683
0.380086
0.31336
0.391767
0.417452
0.358563
0.31768
0.649753
0.700107
0.675212
0.668361
0.63889
0.591614
0.660151
0.25582
0.349758
0.299989
0.246337
0.274085
0.178844
0.235749
0.151547
0.285448
0.24633
-0.0221576
0.159382
0.210317
0.068337
0.145435
0.182336
1.43904
1.4532
1.42857
1.41582
1.40082
1.4321
1.4676
1.51941
1.51651
1.49798
1.50135
1.4825
1.48266
0.147006
0.305785
0.325343
0.18119
0.160358
0.0426682
0.0215046
0.799421
0.541759
0.559734
0.472104
0.300254
0.391801
1.02618
1.10814
1.11547
1.09265
1.02214
0.978326
1.06778
1.14443
0.870441
0.957398
0.911037
0.976023
1.00914
1.04872
0.98073
0.797259
1.06284
1.22584
0.77043
0.84219
0.994168
0.99601
1.0249
0.989092
1.13756
0.953444
0.906849
0.879392
0.891818
1.00023
0.982423
1.04219
1.08502
0.745532
0.794435
0.767686
1.41823
1.45459
1.46637
1.42343
1.44404
1.4437
1.41322
1.46059
1.49821
1.50689
0.264905
0.413791
-0.0856607
0.491157
0.742216
1.40479
1.11193
1.40779
1.37248
1.02841
1.16827
1.25351
1.24652
1.31157
1.24127
1.14478
1.20938
1.15425
1.22056
1.10125
1.06212
1.34876
1.31452
1.3573
1.35314
1.32619
1.36957
1.4505
1.538
1.45097
1.51472
1.49267
1.52981
0.385646
0.299077
0.356364
0.359557
0.35202
0.289895
0.0583566
0.111803
0.329972
0.265535
0.192695
0.237891
0.716175
0.737901
0.541048
0.686196
0.498486
0.336093
0.37107
0.447499
0.572676
0.649206
0.920482
0.941947
0.958102
0.971404
0.839919
1.00269
1.10643
1.08417
1.12427
1.01287
1.02769
1.01872
0.592511
0.767793
1.37163
1.64156
1.39996
1.20705
0.943019
1.03151
1.36255
1.26352
1.26954
1.33913
1.28056
0.884797
0.914117
0.972678
0.977034
0.973682
0.928458
0.890328
0.993065
1.01487
)
;

boundaryField
{
    wall-4
    {
        type            zeroGradient;
    }
    velocity-inlet-5
    {
        type            zeroGradient;
    }
    velocity-inlet-6
    {
        type            zeroGradient;
    }
    pressure-outlet-7
    {
        type            fixedValue;
        value           uniform 0;
    }
    wall-8
    {
        type            zeroGradient;
    }
    frontAndBackPlanes
    {
        type            empty;
    }
}


// ************************************************************************* //
