/*--------------------------------*- C++ -*----------------------------------*\
| =========                 |                                                 |
| \\      /  F ield         | OpenFOAM: The Open Source CFD Toolbox           |
|  \\    /   O peration     | Version:  2412                                  |
|   \\  /    A nd           | Website:  www.openfoam.com                      |
|    \\/     M anipulation  |                                                 |
\*---------------------------------------------------------------------------*/
FoamFile
{
    version     2.0;
    format      ascii;
    arch        "LSB;label=32;scalar=64";
    class       surfaceScalarField;
    location    "1";
    object      phi;
}
// * * * * * * * * * * * * * * * * * * * * * * * * * * * * * * * * * * * * * //

dimensions      [0 3 -1 0 0 0 0];

oriented        oriented;

internalField   nonuniform List<scalar> 
1300
(
3.75095
5.62643
-7.08749
3.75095
-6.37231
5.62643
-6.42155
6.42155
-1.43597
1.43597
1.88801
1.86294
-5.83104
5.83104
-5.67688
5.67688
-3.07522
3.07522
-5.40506
5.40506
-5.25439
5.25439
3.93654
-3.93654
-5.33957
5.33957
-2.13432
2.13432
-6.44619
6.44619
3.20836
-3.20836
-5.65592
5.65592
-1.7203
1.7203
-0.453517
4.20447
3.29744
3.29744
-2.75322
2.75322
-5.4132
5.4132
6.14253
-6.14253
9.92873
-9.92873
-2.84124
-3.25008
1.24505
-8.00974
-5.12726
-5.12726
-8.48428
8.48428
-2.85785
2.76858
3.21419
-3.21419
-2.64729
2.64729
-6.1677
-0.253848
-6.1677
6.57757
-0.156023
6.57757
-1.64501
0.20904
-1.64501
4.78686
-4.78686
1.22529
0.21068
1.22529
3.21028
-3.21028
-1.88646
3.77447
1.86449
-1.84586
6.05034
-1.90509
3.76803
-4.92446
4.92446
-5.99397
0.162937
-5.99397
5.87281
-0.0417767
5.87281
-5.55955
5.55955
-5.69983
0.0229487
-5.69983
5.58055
0.0963274
5.58055
3.31004
-3.31004
-3.13457
0.0593477
-3.13457
3.08184
-0.00661092
3.08184
0.258548
5.36788
-5.88498
8.65355
-5.36788
-0.0371801
5.35283
0.0522338
5.35283
-5.23064
-0.0237436
-5.23064
5.18158
0.0728061
5.18158
3.74276
0.193777
3.74276
-4.24413
0.307589
-4.24413
-3.17359
-3.29006
-5.42255
0.0829804
-5.42255
-2.20247
0.0681525
-2.20247
2.07081
0.0635072
2.07081
-3.97409
3.97409
-6.66036
0.214169
-6.66036
3.16501
0.0433475
3.16501
1.88463
1.86632
5.63559
-5.63559
2.42723
-5.68464
0.0287183
-5.68464
-5.70971
-4.21902
5.70971
-0.0537878
-1.05962
-0.660673
-1.05962
3.27172
0.0257116
3.27172
2.94155
0.140289
-2.94155
0.188324
3.70195
-3.70195
2.22351
0.529709
2.22351
-5.52784
5.52784
5.25125
-0.0696706
-5.25125
-0.161945
6.11343
0.029099
6.11343
-6.11303
-0.0294945
-6.11303
3.27817
-6.52824
-3.32434
5.2195
0.12007
-5.2195
0.0922445
3.22784
-0.0136511
3.22784
-3.19559
3.19559
-3.19111
-0.0230763
-3.19111
-2.51916
-0.128132
-2.51916
2.71612
-0.068831
2.71612
-5.69698
-0.470718
-5.69698
-6.66882
0.00845933
6.66882
-0.0912494
3.07234
-3.07234
-1.77738
0.132371
-1.77738
-5.18438
-0.512608
5.18438
-0.397516
-4.59056
-0.196297
-4.59056
-3.22753
0.0364201
3.22753
-0.01725
3.16583
0.105897
-3.16583
-0.0444561
-1.87257
3.73889
-1.87839
3.74288
-4.71267
-0.211784
-4.71267
5.1705
-0.246044
5.1705
6.32981
0.11638
-6.32981
0.335839
5.69571
0.177106
5.69571
-5.49982
-0.0597291
-5.49982
5.60369
-0.044145
5.60369
5.63721
0.0584951
-5.63721
-0.0626168
5.74494
-0.16439
5.74494
3.33719
-0.0271589
3.33719
-3.22079
-0.089244
-3.22079
3.17088
-3.17088
3.07278
0.0981017
-3.07278
-0.0617917
-11.1571
11.1276
-0.117211
-11.0399
5.23562
5.23562
3.11074
0.632024
3.11074
-4.67588
0.431755
-4.67588
3.29595
-6.62029
3.22846
-6.40204
3.17829
-11.188
3.42868
-6.71874
5.56308
-5.56308
5.39899
0.164093
-5.39899
-0.0235606
-2.19819
-0.00428021
-2.19819
-3.752
-0.222088
-3.752
4.32705
-0.352966
4.32705
-3.22326
3.22326
-3.17524
-0.0480226
3.17524
-0.0102288
5.63944
0.105508
-5.63944
-0.0452048
1.06713
0.158168
-1.06713
0.00750157
3.87076
-0.168806
3.87076
-3.51031
-0.191636
-3.51031
-2.18089
-0.0173027
2.18089
0.0426273
-5.8689
0.341067
-5.8689
-11.0966
0.0567606
-11.0444
-6.05627
-6.05627
2.42801
11.0816
-3.22102
0.000232184
3.22102
0.00681721
3.12597
0.0972921
-3.12597
-0.0696153
-3.17937
0.00849116
3.17937
0.0162127
-2.38428
-0.134878
-2.38428
-2.8855
2.8855
-2.83818
-0.0473132
2.83818
-0.122063
3.2159
-0.143567
3.2159
1.96795
0.102856
-1.96795
0.190569
-4.1818
-0.408765
-4.1818
5.26094
-0.0904328
5.26094
-3.40165
-0.108666
3.40165
-0.0644536
-0.0226544
11.1502
-5.21296
-0.0176806
5.21296
-11.1793
11.1616
-2.51506
0.130776
2.51506
0.595678
5.11196
0.415878
-5.11196
0.436079
5.51236
0.0913302
-5.51236
-0.0507224
-3.55003
-0.201972
-3.55003
-4.53207
-0.180609
4.53207
-0.205014
-11.311
-0.144216
11.4552
-11.2382
6.01312
0.100307
-6.01312
11.262
-2.91702
-0.155317
2.91702
-0.0315209
3.31853
-0.102624
3.31853
4.11396
-0.2432
-4.11396
-0.0678425
-5.4104
-0.0894192
5.4104
-0.149462
-3.49845
-0.0515758
3.49845
-0.179923
-4.14576
4.17147
1.90457
-3.31719
-3.21106
-7.53621
1.79028
1.9486
4.21751
-7.06694
-4.1211
-6.97469
6.81919
-6.38311
-6.71884
6.91262
7.65327
-7.84957
-5.79033
5.7801
6.30358
-6.32083
1.84881
1.92566
10.7787
-10.6157
-10.1013
9.88955
10.0811
-10.0581
10.4065
-10.4662
-11.9532
12.0446
-5.58734
5.64669
-6.56614
6.47689
-6.6343
6.56984
-3.2077
-3.19434
8.81924
-8.73626
11.5626
-11.5339
-11.1897
11.4039
3.26777
0.903705
3.37367
-1.92341
3.77222
-1.84462
3.7492
3.29592
-6.50362
3.32437
-6.53542
5.9293
5.63332
-5.87552
-1.66069
-5.8085
5.79485
-5.72539
5.74161
10.9839
-11.2377
-1.8356
3.76126
-1.90728
3.85588
-3.38932
-2.40102
3.34597
0.871545
5.49037
3.32888
-5.61044
-1.36426
-7.55007
7.30686
-7.68197
7.49033
0.0210492
5.5764
-5.59745
5.43425
-1.86835
7.44475
4.95084
5.38259
5.65215
-5.23627
0.730962
-6.32841
-6.49036
-2.33892
2.47129
2.13508
-1.9244
6.55103
1.10225
6.15351
-5.2725
-2.57707
-5.68126
3.81875
1.96135
3.77073
4.02244
2.28114
4.05886
2.97939
-3.06396
0.0845663
-3.02371
6.0031
0.697299
-5.42473
-4.55318
6.94303
3.83564
6.90125
-7.35851
-3.25722
-7.02267
-6.14184
-3.9595
-6.32245
6.59826
3.29129
6.35221
-7.72203
7.57257
6.63423
3.44685
6.73055
-6.61391
-3.44422
-6.67652
10.2955
-2.89442
-7.40105
-6.96974
-4.98349
7.01389
3.39259
7.42247
4.62209
7.37175
3.60416
6.69131
-6.99675
2.01326
-3.72605
-1.86129
-3.78784
3.57312
2.07357
3.56651
-4.23019
-2.33594
-4.22996
-4.1806
-2.4537
4.20776
2.26913
-4.26004
-3.42193
4.3687
2.20114
3.23771
-7.35881
3.48104
-6.67538
-6.19243
-2.54383
-6.21599
4.00675
2.65432
-6.66107
-2.49687
10.693
-5.05967
9.03229
-7.19626
-4.33764
-7.24146
-8.82905
-2.36065
-8.82059
-5.16446
4.96249
-5.6376
5.28463
10.5405
-5.91229
-4.6282
-4.00511
-2.31572
4.04956
-0.675898
-3.6339
3.71847
0.13832
3.88752
4.79122
4.11532
-3.78263
-1.94277
-3.85224
3.76213
1.97948
3.77062
8.53555
2.44833
8.37953
-7.57425
-3.66348
-8.04496
5.51525
-5.64338
2.94898
-2.96628
5.11654
2.37379
-4.94774
-2.60233
5.8576
-3.05126
-2.80634
-12.303
7.89435
4.40867
-4.85827
0.575978
2.29627
-4.62077
-2.09807
4.31319
1.06941
8.96376
6.8657
-5.25715
5.59822
6.19808
6.12841
-0.361948
3.8654
-3.73463
5.92994
-0.911815
-5.01813
5.7834
-6.29601
-2.26156
-5.95081
3.68925
-0.142501
0.0836735
-0.744346
-1.94447
-0.394454
-1.7539
1.17605
0.959034
1.33422
1.01527
1.45602
-2.50691
0.259338
2.24757
-1.49164
-1.66506
-3.96016
-0.23341
4.19357
5.50102
1.80585
-5.43318
-0.248086
2.65253
-2.58903
-1.52576
-2.43441
1.2301
-2.75585
-3.07569
-2.15143
5.22711
-3.31856
-0.533687
3.22126
0.549467
-3.78471
-2.02379
3.80779
0.251071
-2.9159
5.96463
-3.04873
-4.85866
2.52862
3.47449
4.48996
-4.62734
2.3104
2.31694
-1.15285
5.82397
1.07728
6.00108
-8.96445
5.70723
7.82022
3.58365
-7.9366
0.913927
-8.05053
9.35196
-8.36277
-0.98919
4.81084
4.54112
5.31052
5.22996
-3.36613
8.67665
-1.23204
-7.13073
9.28256
-5.69891
5.44607
-11.145
-10.676
3.5453
-6.73527
8.38856
-1.65328
-2.37348
-5.34855
9.10875
-0.913227
-8.19552
5.43899
-5.07726
-5.41664
10.4939
-7.97168
8.86086
-2.57687
-6.28399
-6.53471
-3.9315
6.62413
0.948441
-9.64475
11.658
-2.95344
5.84037
0.890185
5.67598
3.94987
-5.94542
1.99555
4.02181
-6.59868
2.37308
-8.3185
-4.74465
9.41525
-4.6706
-7.28848
-6.63898
-0.649498
1.9865
9.67151
-6.60859
5.31913
1.28946
3.20873
0.561885
-3.30684
-0.481007
0.312467
4.45234
-4.76481
3.87898
4.01926
3.48968
0.96266
3.77227
2.02258
-3.77908
-0.450878
-3.84393
1.39024
-1.5748
-3.45114
4.84138
-3.93232
0.481179
-2.59839
-3.39327
5.99166
-4.45969
2.84838
3.11625
4.82785
-4.75082
1.35755
-2.35638
-2.39443
2.57478
-4.14957
1.8386
3.00278
4.03974
0.617813
4.61099
4.80426
-7.26531
0.58993
8.13314
-6.76888
1.56753
5.80422
-6.88666
0.247677
-5.96831
1.133
-6.19267
-5.52807
6.4142
-8.77485
-4.73078
8.12484
0.254686
-8.03359
-0.786999
-3.68973
-1.47473
-3.74131
-1.90553
-3.73207
-5.27166
-1.00833
-4.26333
3.95416
-4.22866
-2.09379
4.43368
0.850959
-4.45881
4.3035
-4.44749
4.34487
0.140771
3.5777
4.25609
1.94037
-2.42484
4.36521
-6.61436
9.06269
-10.6752
4.06088
4.41829
-8.08177
-6.25695
3.40005
2.11519
3.33122
5.57964
-6.95129
1.37164
-6.28711
7.25199
-0.964884
-9.79667
3.50957
-4.21703
2.60723
0.341749
2.60295
0.697749
2.25207
-2.94982
-2.26853
-2.22591
-2.20078
-3.25834
5.45911
0.911829
-3.19966
2.28783
-3.3184
4.23023
-0.130502
-3.06916
4.91137
-2.6593
5.25312
-3.4489
1.80421
3.1983
5.26994
-2.07163
4.09682
-1.72304
1.76384
-3.83547
-1.4945
-2.89732
4.97089
-3.09434
3.57552
-0.20608
3.7816
-3.98082
0.929568
-0.491142
3.52812
3.71645
3.97579
-3.01313
2.66603
-4.38906
-1.16945
-3.77125
-0.768473
-0.833072
-5.05546
5.88853
4.83764
-5.67071
-2.78741
5.54397
-2.75656
4.70026
-3.32555
-1.37472
-2.80524
-2.83814
2.94012
0.925285
5.62555
0.300028
-3.62558
-3.4346
-2.83892
4.70829
1.22166
-0.910673
5.31934
-1.3856
1.46928
0.529658
0.804557
1.13424
-0.604581
-0.0677129
1.20195
-0.812059
1.88599
0.766546
-1.98884
0.234945
-1.74244
2.97254
0.505133
-1.46417
0.859585
2.32913
-3.24094
4.77713
-1.54482
-3.23231
7.10625
1.83954
-3.38436
4.11127
-4.25377
2.78686
-3.02027
-0.597493
-4.85126
-3.74902
-2.15294
4.44077
-3.30618
5.11202
1.36508
-4.86394
6.22902
-3.47126
1.31983
-2.64526
3.4118
-0.758968
-1.88629
2.48181
2.7453
-2.80645
0.37204
-0.324633
1.9722
-2.29684
-0.783651
-2.27529
-4.45408
4.70515
-2.19228
4.50268
2.17293
-1.96403
6.4667
1.76112
-3.72514
-3.09754
-3.63123
-1.4082
3.08176
-0.744786
-5.93174
-7.02878
5.87324
0.127837
-8.97777
10.0493
-1.07149
-5.14213
-0.5651
5.37594
-7.24648
0.647802
-4.8734
5.17586
6.25314
6.38098
-8.06497
-0.130555
-4.77368
1.25676
-6.03043
5.79788
-2.76455
6.30985
-6.76306
4.66927
-5.9121
5.32066
-0.709774
5.25379
-3.25824
2.14725
-6.07875
-5.13031
6.9616
-3.51475
7.85179
-4.0257
11.8775
-6.97914
7.02243
4.85506
-1.28505
-5.95641
-6.84751
5.56246
0.174924
5.8509
4.88232
-2.85974
4.43145
2.05407
-4.41045
-2.0955
-6.35584
1.94539
-3.23959
-1.69852
3.64391
3.12933
3.69122
1.24948
-3.21021
6.61785
-7.26735
-1.94725
-3.58081
6.80824
-1.24578
3.72208
-7.30289
-2.4706
5.16664
-0.531381
-4.63525
0.745654
-5.47644
2.51411
-7.99055
6.26074
-7.04774
1.22436
-5.44139
-3.23445
-3.26597
-1.28232
-3.16518
-4.50432
3.222
-0.994752
3.30874
-5.40863
4.87725
-1.84336
5.06536
-3.32801
-0.413298
3.50793
0.836937
5.9023
-0.37839
-5.87856
-1.54346
5.66156
-4.1181
3.16483
-5.43385
0.22771
3.48692
3.61934
-7.17616
-0.905606
-6.78417
-2.37671
4.4919
3.16726
8.00491
1.05362
4.99471
-0.502812
6.04833
2.82841
2.70635
-3.8046
5.17624
2.08393
6.14481
-0.816337
2.62055
1.78661
1.85477
0.734261
2.22465
1.4918
3.15421
0.204395
-2.02151
3.10546
-5.94438
-0.52012
-5.31235
1.60026
3.98853
-2.38826
4.71087
-3.48921
0.592767
2.63121
-1.83676
-0.794457
-2.38691
-0.367482
0.834471
-1.04881
1.9084
1.92373
-2.74287
0.355956
-0.0645682
-3.68445
3.08484
-2.7128
0.0324992
6.26152
-2.35404
0.0572033
-1.0342
-2.21809
-2.61254
2.3776
6.05279
0.413916
3.00406
5.11906
3.09527
0.235531
4.23625
-5.88954
-4.08224
-6.02009
-0.222211
5.15373
1.73301
7.9385
6.58807
5.34229
-1.9606
-9.22795
7.30915
-2.13291
6.34426
-1.70901
-6.28154
6.49823
2.56446
-6.75292
-0.294822
-6.57636
-8.70927
-0.326031
5.20328
-5.57627
5.16297
3.68824
0.575086
-2.77056
-0.495409
2.81788
-0.111531
5.9368
-1.09745
-5.5131
6.61055
-2.89108
2.37096
4.96584
0.353503
4.17138
0.682169
-4.83093
-7.2192
-1.14641
-2.09453
-4.37872
-0.18515
-1.73858
3.93499
-1.56403
2.56028
5.04652
5.63929
-1.59839
-4.07232
4.35495
-1.79468
3.84461
)
;

boundaryField
{
    wall-4
    {
        type            calculated;
        value           uniform 0;
    }
    velocity-inlet-5
    {
        type            calculated;
        value           uniform -3.75095;
    }
    velocity-inlet-6
    {
        type            calculated;
        value           uniform -5.62643;
    }
    pressure-outlet-7
    {
        type            calculated;
        value           nonuniform List<scalar> 8(7.08749 6.37231 6.09132 6.76469 6.46365 6.60251 6.5244 6.60697);
    }
    wall-8
    {
        type            calculated;
        value           uniform 0;
    }
    frontAndBackPlanes
    {
        type            empty;
    }
}


// ************************************************************************* //
