/*--------------------------------*- C++ -*----------------------------------*\
| =========                 |                                                 |
| \\      /  F ield         | OpenFOAM: The Open Source CFD Toolbox           |
|  \\    /   O peration     | Version:  2412                                  |
|   \\  /    A nd           | Website:  www.openfoam.com                      |
|    \\/     M anipulation  |                                                 |
\*---------------------------------------------------------------------------*/
FoamFile
{
    version     2.0;
    format      ascii;
    arch        "LSB;label=32;scalar=64";
    class       volVectorField;
    location    "1";
    object      U;
}
// * * * * * * * * * * * * * * * * * * * * * * * * * * * * * * * * * * * * * //

dimensions      [0 1 -1 0 0 0 0];

internalField   nonuniform List<vector> 
918
(
(0.821529 -0.191722 0)
(0.0219174 2.97228 0)
(-0.21665 1.78693 0)
(0.688634 0.19623 0)
(0.044023 1.72486 -1.05373e-19)
(-0.0859944 2.87392 -1.41602e-18)
(1.13658 1.76191 2.74927e-19)
(0.476406 0.284483 -2.81514e-20)
(0.887188 -0.0019461 0)
(0.0417808 1.77722 0)
(0.0168971 1.74177 0)
(0.941181 0.0123279 0)
(-0.0632095 3.05878 0)
(0.0292142 2.92706 0)
(-0.0887235 2.7145 1.67415e-19)
(-0.0234287 1.71764 -9.85997e-20)
(0.689439 0.161302 2.28954e-18)
(0.236955 2.05275 2.58985e-19)
(0.980692 0.0333984 0)
(0.0397922 1.72922 0)
(0.742619 0.128663 8.40432e-20)
(0.682215 -0.0571802 0)
(0.856268 0.000846529 0)
(1.05482 0.0540524 0)
(0.850345 0.0589105 0)
(0.0377804 2.98693 0)
(-0.0359051 2.8617 4.47528e-19)
(-0.195404 1.74736 0)
(-0.0488972 1.66471 0)
(-0.240121 1.73421 0)
(0.0482743 1.73932 0)
(-0.0670351 1.68813 8.29103e-20)
(-0.0330377 1.71761 0)
(-0.0539481 3.02646 -4.08507e-23)
(-0.00751375 2.97919 1.19648e-18)
(0.0221448 3.01157 0)
(0.982083 -0.00518703 0)
(0.818234 1.27475 5.76535e-19)
(1.16797 1.67596 2.3821e-20)
(1.26477 1.55341 8.31985e-20)
(0.972374 1.87208 -6.66877e-20)
(0.93209 1.9404 4.5874e-19)
(0.526128 0.302412 2.68909e-20)
(0.535972 0.281413 0)
(1.37075 0.786074 0)
(0.462596 0.316905 1.13939e-19)
(0.417342 0.286096 -1.18258e-19)
(0.982348 -0.0164363 0)
(1.00719 -0.000318656 0)
(0.89136 -0.00276296 0)
(0.939258 -0.0846587 0)
(0.970529 -0.00301585 0)
(0.929808 0.0176291 0)
(-0.00250547 1.60403 -1.05605e-18)
(0.0344578 1.83069 0)
(0.0271784 1.83052 0)
(-0.0202227 1.79797 0)
(-0.0139591 1.80154 0)
(-0.0149052 1.71973 0)
(0.0285356 1.76189 0)
(0.0112071 1.74595 0)
(-0.00132973 1.74228 0)
(-0.00897136 1.70587 0)
(1.00892 -0.00253926 0)
(0.96525 0.0266236 0)
(0.95845 0.00348941 0)
(0.949472 -0.00748401 0)
(0.942754 -0.00218418 0)
(-0.00509908 2.97289 4.58219e-19)
(0.0284333 2.9209 0)
(-0.035777 2.9497 0)
(-0.070785 3.08707 2.46133e-24)
(-0.0931087 2.94422 -7.54451e-19)
(-0.0149211 3.0679 0)
(0.0287464 2.97806 0)
(0.020223 2.98525 6.03484e-25)
(0.0249912 2.92031 0)
(0.0786857 2.98423 0)
(0.092005 2.90036 0)
(0.138974 2.85249 0)
(-0.117318 2.88611 0)
(-0.00581071 2.76561 -1.55561e-19)
(-0.124402 2.65589 0)
(-0.00270912 1.73012 0)
(-0.0235987 1.74186 9.72778e-20)
(0.00698154 1.71531 -1.16773e-19)
(0.723524 0.165404 -7.84118e-19)
(0.729079 0.148447 -7.60939e-19)
(0.691616 0.221318 -2.36194e-18)
(0.660188 0.203909 -1.50662e-18)
(0.201154 1.39464 0)
(0.355873 2.11289 -2.97508e-19)
(0.46588 2.10044 -1.18786e-19)
(0.987656 -0.00431093 0)
(0.970107 -0.00177475 0)
(0.895188 -0.0158079 0)
(1.01695 0.0303372 0)
(0.951026 0.0739583 -8.10606e-18)
(1.02277 0.114969 6.02745e-18)
(0.0287285 1.76669 0)
(0.00794328 1.73583 0)
(0.0228579 1.70887 0)
(-0.0241308 1.74349 0)
(-0.0234717 1.75201 0)
(0.815442 0.155698 5.4314e-20)
(0.379377 0.353944 0)
(1.03654 0.022032 0)
(0.996076 -0.00518168 0)
(0.940533 0.0285752 0)
(0.888662 0.0958178 0)
(0.892986 0.0200054 0)
(1.13826 -0.0164408 0)
(0.837989 0.0350998 0)
(0.817277 0.0280936 3.59879e-18)
(-0.058529 2.8554 2.57626e-19)
(-0.0264102 2.96888 0)
(-0.0494393 3.06324 0)
(-0.00624073 2.91954 0)
(-0.0076523 2.94269 3.79695e-19)
(0.0407458 2.87629 0)
(-0.0258181 2.95006 -1.26408e-18)
(-0.113803 2.88548 4.43278e-19)
(0.0419611 1.73582 0)
(-0.00826737 1.74861 0)
(-0.00832021 1.72635 -3.83838e-21)
(-0.0501546 1.74067 0)
(0.0249086 1.7009 0)
(1.00112 0.00222248 0)
(0.98677 -0.0161156 0)
(0.97462 -0.0046658 0)
(0.996214 -0.00268385 0)
(0.975114 0.0175631 0)
(0.908392 1.329 -7.19672e-19)
(0.883363 1.23064 0)
(0.820187 1.33332 -9.1701e-20)
(0.781832 1.24784 0)
(1.21352 1.43669 1.00744e-20)
(1.36415 1.26121 -1.27864e-19)
(0.570893 2.11101 0)
(0.79125 2.01603 0)
(0.712675 2.05188 0)
(0.533859 1.26448 -5.55912e-19)
(0.562992 0.305592 0)
(0.568685 0.250317 4.02461e-19)
(1.2338 1.21005 0)
(1.26919 0.952507 0)
(1.37691 1.0144 3.18188e-19)
(1.32435 0.75378 0)
(1.3818 0.612014 8.07139e-20)
(0.990012 0.0252514 0)
(0.99599 -0.0135117 0)
(0.989324 -0.00952212 0)
(0.99594 0.0037161 0)
(0.992536 -0.0267228 0)
(0.965705 0.00982686 0)
(0.984783 0.00353622 0)
(0.95021 -0.00191469 0)
(0.897646 0.0086119 0)
(-0.00823412 1.62506 5.47121e-19)
(0.00481747 1.56313 0)
(0.0255389 1.6584 5.18736e-19)
(0.03206 1.66276 -9.27504e-19)
(0.113921 2.01855 -2.11231e-19)
(0.00902119 1.91433 0)
(0.0315726 1.95234 0)
(-0.0092552 1.80039 0)
(-0.00129471 1.74555 0)
(-0.029512 1.73473 -3.81341e-21)
(-0.0119281 1.71344 0)
(0.00888586 1.74374 -2.76064e-19)
(0.019089 1.72836 5.13475e-19)
(0.0288939 1.74993 0)
(0.024859 1.75569 0)
(0.00584755 1.72167 0)
(0.0013554 1.75143 0)
(-0.00460523 1.75896 0)
(1.03081 0.0172059 0)
(1.01883 0.00616041 0)
(1.01204 0.00130913 0)
(0.982655 -0.0068954 0)
(0.969456 -0.00789667 0)
(0.973967 0.00420381 0)
(0.963192 0.0184572 0)
(0.9358 -0.00141028 0)
(0.0415143 3.07309 -4.05578e-21)
(0.0586293 3.04356 0)
(0.0530063 3.01009 0)
(0.026344 2.93307 0)
(0.643683 3.05943 0)
(0.9146 2.49116 4.23434e-19)
(-0.03916 2.80912 0)
(-0.0678337 2.73811 0)
(-0.00807473 1.79834 0)
(-0.0164556 1.68323 0)
(-0.00302659 1.73911 0)
(0.0690469 1.76406 -4.3016e-20)
(0.00400418 1.79492 0)
(0.0508774 1.77344 0)
(0.03189 1.7262 4.26363e-20)
(0.0199727 1.74873 1.73363e-19)
(-0.00234331 1.72407 1.19551e-19)
(0.0141693 1.68567 0)
(0.752898 0.153366 1.24566e-18)
(0.746439 0.0853085 -1.23053e-18)
(0.212373 1.41632 0)
(0.23386 1.34657 -3.30035e-19)
(0.144403 1.49795 -1.0096e-18)
(0.102101 1.47817 1.00976e-18)
(0.987811 -0.0104301 0)
(0.986533 -0.0242537 0)
(0.985968 0.00190823 0)
(0.967729 0.00996048 0)
(0.00516819 1.7679 0)
(0.0270795 1.74777 0)
(0.00764818 1.73011 0)
(0.424904 0.29363 9.58456e-19)
(0.4597 0.263728 -9.08753e-19)
(0.37954 0.28951 -2.32298e-19)
(1.18861 0.102921 1.21793e-19)
(1.24278 0.0401031 0)
(1.12439 0.0438047 0)
(1.06922 0.00192927 0)
(0.777262 0.101089 0)
(0.815779 0.0581728 -5.74599e-18)
(0.762354 0.0500655 2.19689e-18)
(-0.0303125 2.97354 2.17293e-19)
(0.0506913 2.91297 -1.37267e-20)
(0.0883993 3.01297 -8.61116e-21)
(0.116571 3.02518 1.79931e-19)
(-0.0929211 2.96353 1.86808e-20)
(-0.151147 2.91946 -6.04196e-23)
(-0.105074 3.05328 -2.29735e-19)
(0.110793 3.01405 1.64131e-19)
(0.121839 3.06946 -2.08567e-19)
(1.00698 -0.000674317 0)
(0.990834 0.0414828 0)
(0.981957 0.0285012 0)
(0.986798 -0.0111507 0)
(0.978366 -0.00379221 0)
(0.954923 -0.00295455 0)
(0.979397 -0.0136673 0)
(0.993054 0.0139772 0)
(0.971755 0.00842534 0)
(0.966737 1.29102 -6.01312e-19)
(0.889177 1.27327 0)
(0.670674 1.24663 1.65397e-19)
(0.695407 1.33437 1.28264e-18)
(0.776523 1.32899 -7.81357e-19)
(0.72838 1.26369 1.4992e-18)
(0.508411 1.31858 2.729e-18)
(0.507487 1.2732 5.01658e-19)
(0.661796 0.238404 1.5772e-18)
(0.613828 0.272927 3.96899e-19)
(0.627072 0.237385 7.5161e-19)
(1.28328 0.55352 -6.29093e-19)
(1.33625 0.373012 -7.42484e-19)
(0.000642712 1.69591 4.09929e-19)
(0.0032856 1.66762 0)
(1.07405 0.0289421 0)
(1.04949 0.00756474 0)
(1.03498 -0.00478439 0)
(0.0244273 3.08169 0)
(-0.00629424 2.98649 4.18846e-19)
(-0.000363454 2.98969 0)
(-0.0123648 2.89975 -4.52183e-19)
(-0.00253488 3.07694 9.16983e-20)
(0.022158 3.08155 0)
(0.856846 1.36928 4.72053e-20)
(0.919908 1.82456 -2.70605e-19)
(0.71328 1.4777 -2.20372e-19)
(-0.0486025 2.91554 -2.35046e-19)
(-0.037348 2.84655 0)
(-0.0676552 2.79728 0)
(-0.030071 1.75871 -1.60073e-20)
(0.0312266 1.72051 -4.39489e-19)
(-0.047045 1.69665 4.56408e-19)
(0.249434 1.37999 1.05236e-18)
(0.278886 1.31709 -7.11305e-19)
(0.0207235 1.60385 7.73088e-19)
(0.0799496 1.54801 -8.65003e-19)
(0.059401 1.53295 6.87899e-20)
(-0.0815833 3.09312 -2.31535e-19)
(-0.0761434 3.10353 2.9483e-19)
(0.00759055 2.95366 2.37898e-19)
(0.0730929 2.97584 -1.86229e-19)
(0.102204 2.90988 2.42089e-19)
(0.00407007 3.0662 -6.99518e-19)
(-0.062917 3.0595 -2.25381e-21)
(0.534324 1.30722 0)
(0.595611 1.32724 -2.74135e-18)
(0.567973 1.22854 1.2201e-18)
(0.426213 1.35919 1.43787e-18)
(0.421558 1.28783 -2.24841e-18)
(1.25508 0.18501 4.45941e-19)
(1.29868 0.366443 0)
(1.32244 0.245288 -4.00231e-19)
(-0.000677135 1.73031 -4.92665e-21)
(-0.0123163 1.70343 0)
(0.0121432 1.69257 0)
(0.29909 1.38287 -3.72926e-19)
(0.359335 1.35513 -8.3731e-19)
(0.380081 1.33224 1.56282e-18)
(0.983523 -0.0490235 0)
(1.05312 -0.0853014 1.49652e-18)
(0.0420092 1.74486 0)
(-0.0235536 1.74189 0)
(1.05672 -0.0171335 5.1334e-20)
(0.911679 -0.0180493 3.19088e-18)
(0.0179653 1.8019 5.67316e-20)
(0.0845712 1.8036 0)
(-0.0713371 2.94429 2.08792e-19)
(-0.0193976 2.57304 0)
(1.18028 0.63485 -4.20169e-19)
(1.036 -0.0128192 -2.11796e-20)
(1.0063 0.0423884 0)
(0.998471 0.00136769 -4.04128e-21)
(0.041469 1.90057 0)
(0.133259 1.73595 0)
(-0.0375001 1.78238 0)
(0.0921966 1.79883 2.58001e-19)
(0.00572026 1.79366 1.66399e-19)
(0.997701 -0.00812247 1.39021e-20)
(1.05463 0.0752 0)
(1.08017 0.0447031 0)
(-0.0152382 1.71329 0)
(0.0406879 1.76903 0)
(-0.0407355 1.78087 0)
(0.227243 1.96637 7.02853e-20)
(0.981564 -0.0850527 0)
(0.98486 -0.0619883 0)
(0.96699 0.0500028 -1.91277e-18)
(1.00236 0.0289763 -2.25331e-18)
(1.10892 -0.0543092 0)
(0.00406283 1.72641 0)
(0.0153286 1.73334 0)
(-0.00415293 1.75696 0)
(-0.0162123 1.8111 0)
(-0.053055 1.76594 0)
(0.00198353 1.71422 0)
(1.01526 0.00671463 0)
(1.0284 -0.0152724 -2.68978e-21)
(0.867702 1.69751 -1.17163e-20)
(0.971788 -0.0738909 -1.90883e-18)
(1.0472 0.0388821 2.28023e-18)
(1.11081 0.0285662 0)
(0.978439 0.000420606 1.858e-18)
(1.0203 0.0623137 -2.30205e-18)
(0.995208 0.0292697 0)
(0.02119 1.78919 0)
(0.0576059 1.76389 1.36216e-19)
(-0.0154783 1.73612 -9.45678e-20)
(1.15905 0.293005 2.51017e-18)
(1.11325 0.0815008 0)
(-0.298707 3.0009 -3.27786e-19)
(-0.0556293 3.13497 -8.05503e-21)
(-0.151461 2.97366 8.48268e-19)
(-0.0302683 2.93172 3.95856e-19)
(-0.0226017 2.89123 0)
(-0.051646 2.9699 1.15114e-19)
(-0.0901766 3.09415 2.99939e-19)
(-0.0703152 3.01399 -2.09201e-19)
(-0.10484 3.08547 0)
(0.645872 0.281167 0)
(0.494627 0.348251 0)
(1.08194 0.815289 3.66267e-19)
(1.14624 0.935213 -1.54448e-18)
(1.12103 0.581008 0)
(1.12855 0.616639 0)
(1.03072 0.0201869 -3.47234e-18)
(0.981132 0.00158048 4.49348e-18)
(1.03826 -0.0620265 0)
(1.00251 -0.0556854 0)
(0.926325 0.060463 0)
(1.03083 -0.0278479 0)
(1.00594 0.020626 0)
(0.996434 -0.0473937 0)
(1.01771 -0.0962599 0)
(0.960022 0.000939421 0)
(0.0341003 1.88528 0)
(0.0041138 1.81057 0)
(0.118594 1.85089 0)
(0.178714 1.89297 0)
(0.109178 1.65343 0)
(0.0300192 1.66848 -5.47967e-19)
(0.133167 1.72538 0)
(0.0581681 1.68406 3.54708e-19)
(0.0898228 1.76464 -3.68472e-19)
(-0.0119574 1.80674 0)
(0.0604375 1.7434 0)
(-0.0445874 1.76398 0)
(-0.0629867 1.7591 0)
(-0.0292529 1.76162 -1.53874e-19)
(-0.0513555 1.74638 3.35815e-19)
(0.067271 1.80501 2.62727e-19)
(0.00672501 1.7653 0)
(0.00915445 1.77883 -5.39936e-20)
(0.00895431 1.73597 -3.40811e-19)
(0.0251128 1.79767 9.41589e-20)
(-0.124998 1.62712 -4.17143e-19)
(0.0795859 1.72988 -3.31258e-19)
(0.988317 -0.0254818 3.14128e-18)
(0.988737 -0.0595502 -4.03583e-18)
(0.991529 0.0275081 -3.28168e-18)
(0.916114 0.00559576 4.27124e-18)
(1.04911 0.0501966 0)
(1.03631 0.000663837 0)
(1.03543 0.0268468 0)
(1.06374 0.00587324 0)
(1.02187 -0.00842771 0)
(1.08012 0.0657578 0)
(1.07861 0.0316441 0)
(1.04993 0.0261357 0)
(-0.17111 1.70809 -1.05591e-20)
(0.0490708 1.76568 0)
(-0.0519229 1.73221 0)
(0.0394787 1.74434 6.85061e-20)
(0.0520499 1.78184 3.47945e-21)
(0.00986614 1.8175 5.11982e-20)
(-0.0729839 1.72186 5.00675e-20)
(-0.0539449 1.75904 0)
(-0.0271739 1.77612 0)
(0.080486 1.73555 0)
(-0.0507187 1.76192 0)
(-0.0694012 1.79115 0)
(0.39104 1.9005 -2.7264e-19)
(0.443286 1.99865 1.61289e-21)
(0.315466 1.47347 -2.49599e-19)
(0.235227 1.59742 6.65384e-19)
(0.317552 1.74218 1.58864e-19)
(1.02868 0.0209951 0)
(0.993643 0.0257686 0)
(1.02442 0.0618863 0)
(0.967213 -0.0446423 0)
(1.00027 -0.0134303 0)
(0.928717 0.0451673 0)
(0.982202 0.117356 0)
(1.00341 0.0826247 0)
(0.991375 -0.0312277 2.75026e-20)
(1.00544 -0.0369063 -4.36455e-18)
(1.01816 0.0111901 -3.31289e-18)
(0.978187 0.0222205 4.33359e-18)
(0.859673 1.70002 0)
(0.806378 1.71988 -2.25314e-19)
(0.874037 1.56848 -3.05678e-19)
(0.974806 1.51009 4.09529e-19)
(0.87601 1.54892 2.50644e-18)
(0.858921 0.105206 1.37128e-18)
(1.11992 0.0934004 0)
(1.15132 0.227037 -2.05504e-18)
(1.11846 0.102267 -8.46898e-20)
(0.969687 0.139665 0)
(-0.649851 2.76295 6.49606e-19)
(-0.399024 2.76988 -5.9874e-19)
(-0.369005 3.13413 1.01886e-19)
(-0.374241 1.40955 1.73058e-19)
(-0.100374 2.71742 9.8189e-20)
(0.0205827 2.86833 0)
(0.0734562 2.7618 -1.29422e-19)
(-0.518768 2.7578 -1.66808e-18)
(-0.515123 2.62754 0)
(-0.0566264 3.02556 1.2191e-20)
(-0.0808052 3.07841 -2.00762e-19)
(-0.0513105 3.07064 3.31528e-19)
(-0.0471705 3.09617 0)
(-0.0689983 3.01052 0)
(1.0554 1.79161 0)
(0.202785 1.08447 -1.14982e-18)
(1.08966 1.17241 4.76548e-19)
(0.927179 1.41357 0)
(0.797268 1.14895 -4.93306e-19)
(1.02319 1.12085 5.91888e-20)
(0.246376 -0.154017 -7.14727e-19)
(0.642432 0.275012 -1.14072e-20)
(0.628177 0.309855 8.4206e-19)
(0.462466 0.394754 4.85661e-20)
(0.399768 0.326428 -1.8957e-18)
(0.589107 0.391846 0)
(0.600059 0.454573 1.33615e-18)
(0.591955 0.361174 0)
(0.478315 0.3715 0)
(0.514325 0.352127 0)
(0.602398 0.731816 1.1082e-18)
(1.19575 0.250559 -2.37886e-20)
(1.15253 0.440586 0)
(1.20555 0.278723 0)
(0.767317 0.21325 1.31073e-18)
(0.623557 0.661469 -8.63468e-19)
(0.561205 0.528623 -1.62384e-18)
(0.833947 0.399823 -1.85077e-18)
(0.992031 -0.00290878 2.35822e-18)
(1.00678 0.106254 -2.40742e-18)
(0.995393 0.0671694 0)
(1.01863 -0.0266347 0)
(1.0064 -0.0422906 -2.21875e-18)
(1.01016 0.0182749 2.19712e-18)
(0.978274 0.0496577 0)
(0.958951 -0.00125641 0)
(1.02664 -0.0151982 0)
(0.982163 -0.0160918 0)
(1.02502 -0.0207468 0)
(0.980474 -0.045296 0)
(0.0816561 1.80928 0)
(0.112333 1.79454 0)
(0.0781426 1.82857 -3.26213e-19)
(0.235076 1.96145 -8.05697e-20)
(0.232846 1.92024 -2.58755e-19)
(0.159525 1.93816 3.75497e-19)
(0.0115826 1.78933 0)
(0.236592 1.72884 -4.50446e-19)
(0.0705529 1.81819 0)
(0.3013 1.72218 -2.21199e-19)
(0.22191 1.60453 9.02108e-19)
(0.25241 1.73452 0)
(0.186008 1.83638 -1.56819e-19)
(0.123905 1.74077 1.26969e-19)
(0.208196 1.82944 -4.92348e-19)
(0.215167 1.73776 0)
(0.238763 1.70997 3.52786e-19)
(0.0318164 1.69395 -1.70282e-19)
(0.0475125 1.70971 0)
(-0.00342544 1.7234 4.29305e-19)
(-0.0341835 1.71182 0)
(0.0195672 1.71072 -3.98962e-19)
(0.00368631 1.6862 0)
(0.0378134 1.74461 -2.14506e-19)
(0.0876582 1.7518 0)
(0.061364 1.73796 0)
(0.0380523 1.78222 2.56408e-19)
(0.0396875 1.71712 7.68048e-19)
(0.0632598 1.77164 4.46689e-19)
(0.0165979 1.70683 4.18735e-21)
(0.115065 1.67153 9.15736e-20)
(0.0664583 1.63872 8.20849e-20)
(-0.00916164 1.73412 0)
(-0.0979291 1.76916 0)
(-0.0180093 1.7449 3.45279e-19)
(-0.0723151 1.76422 4.43337e-19)
(0.0166199 1.79242 -5.23403e-19)
(-0.000993985 1.76461 0)
(0.0436578 1.72537 -3.57639e-19)
(-0.0691339 1.68787 6.5554e-20)
(-0.0320581 1.80947 -9.4842e-21)
(0.121896 1.8319 1.06104e-19)
(0.0773999 1.63872 -9.79055e-20)
(-0.0311732 1.7045 3.83765e-19)
(0.991111 0.0468762 -2.34938e-18)
(0.992456 -0.0673136 2.17482e-18)
(0.986389 0.0509849 0)
(0.966372 -0.0545353 3.06274e-18)
(0.910913 0.127218 -3.38839e-18)
(0.943028 0.0539577 3.65822e-18)
(0.964347 -0.0245711 -3.86276e-19)
(1.05293 -0.0724145 0)
(1.02394 -0.0173397 2.16757e-18)
(1.00641 -0.0519166 -2.15669e-18)
(0.967752 0.0039045 -1.21509e-19)
(0.985531 0.0666156 1.01933e-18)
(0.962111 0.0779596 0)
(0.972747 0.0800698 -3.6798e-19)
(0.983027 0.0425741 0)
(0.967904 0.0577424 0)
(1.02065 0.0816497 0)
(0.969554 0.00843301 0)
(1.02297 0.0682946 7.65125e-19)
(1.03309 0.0253112 -1.73715e-18)
(0.980249 -0.0146371 -8.0553e-19)
(1.00655 -0.000909165 -8.92857e-19)
(1.05492 0.0568986 1.72483e-18)
(1.00492 0.0598413 0)
(0.979091 0.020177 0)
(0.0331943 1.8304 -1.84529e-20)
(0.139129 1.70951 -1.67917e-20)
(0.0386308 1.69704 0)
(0.0407824 1.79352 1.91827e-20)
(-0.114914 1.73351 1.70662e-20)
(-0.00534178 1.71415 3.6565e-20)
(-0.0807794 1.77814 3.11458e-19)
(0.0384464 1.76572 -1.51515e-20)
(0.142932 1.71971 8.24576e-20)
(-0.0436785 1.76818 -1.42319e-19)
(-0.0852777 1.77792 1.69408e-19)
(0.0224339 1.71187 -2.07419e-20)
(-0.0173018 1.76216 2.2518e-19)
(0.474474 1.78569 -2.29619e-19)
(0.379858 1.75925 5.70486e-19)
(0.758802 1.78501 2.17856e-19)
(0.592111 1.92413 -1.55085e-21)
(0.649421 1.93005 0)
(0.279372 1.45651 2.89752e-19)
(0.270504 1.42168 3.60293e-19)
(0.228032 1.49862 5.41469e-20)
(0.354881 1.52962 -1.0393e-18)
(0.36359 1.4863 9.36715e-19)
(0.288866 1.50046 0)
(0.181436 1.47042 -6.04482e-19)
(0.0723026 1.62348 1.39487e-18)
(0.15715 1.63702 1.84521e-20)
(0.03339 1.56898 -1.80963e-18)
(0.635914 1.40919 1.60178e-18)
(0.466506 1.45187 0)
(1.01357 0.0947306 7.33341e-20)
(1.0016 -0.0935709 -6.43362e-20)
(0.966371 -0.110215 -1.15053e-18)
(1.0165 0.00864314 1.12994e-18)
(0.99235 0.0579725 0)
(0.797192 1.59641 0)
(0.785777 1.59245 0)
(0.911218 1.32546 0)
(0.638493 1.40626 0)
(0.865432 1.54423 -2.94394e-21)
(0.830782 1.52443 0)
(0.580998 1.48962 1.34027e-20)
(0.463312 1.49459 0)
(0.569019 1.50044 -1.12956e-18)
(0.560541 1.47522 7.5812e-19)
(0.826513 0.118949 0)
(0.786784 0.119642 3.70148e-19)
(0.888235 0.0981988 2.25392e-18)
(0.844019 0.0912935 -8.03422e-19)
(0.841581 0.116485 -2.55428e-18)
(1.05 0.169513 -2.6529e-18)
(0.806215 0.347184 -6.1826e-20)
(0.877843 0.229511 1.9834e-18)
(0.924878 0.125481 2.00606e-18)
(0.858495 0.179409 -1.27476e-18)
(0.872485 0.260518 3.69388e-19)
(0.744199 0.297972 -9.2378e-19)
(0.826452 0.259121 0)
(0.949066 0.124736 1.48561e-18)
(0.98311 0.187598 0)
(0.968752 0.166095 0)
(1.01467 0.178976 8.62819e-19)
(0.96294 0.274197 -1.49957e-20)
(0.907363 0.144791 -1.39348e-18)
(0.983601 0.129987 0)
(0.987905 0.0581558 1.69281e-18)
(0.968353 -0.0365007 2.08968e-18)
(1.04228 0.0588268 -3.18113e-18)
(0.996296 0.0980194 1.41042e-18)
(0.941551 -0.0186692 -2.19185e-18)
(0.910962 0.187996 0)
(0.958763 0.00859402 0)
(0.907781 0.0913675 -1.30115e-18)
(0.894833 -0.0158937 4.87332e-19)
(1.01159 0.119055 1.14144e-18)
(1.0366 0.111962 -2.44904e-18)
(0.954522 0.117315 2.13753e-18)
(0.922048 0.1672 0)
(0.996175 0.12631 0)
(0.941453 0.075576 -9.75321e-19)
(0.975992 0.0755942 -1.56547e-18)
(0.643065 1.51976 5.56082e-19)
(0.611395 1.5605 -6.03712e-19)
(0.759094 1.57708 -8.62859e-19)
(0.737177 1.76452 2.18521e-19)
(0.907597 1.60819 -2.13068e-18)
(1.07155 1.76209 5.55317e-19)
(1.07088 1.64248 -5.11102e-20)
(0.872467 1.70625 -9.02392e-19)
(0.814548 1.67117 1.34112e-18)
(0.867825 2.05932 2.54147e-19)
(1.01431 1.98912 -2.4667e-19)
(1.0327 2.00545 0)
(0.387252 1.32643 -1.24412e-19)
(-0.812709 1.74187 -4.40814e-19)
(-0.292645 0.25364 5.83857e-19)
(-0.40974 0.602197 -9.15388e-20)
(0.35162 0.372964 -1.07215e-18)
(0.29898 0.347798 -1.94103e-18)
(0.263193 0.370409 1.53996e-18)
(0.241363 0.283701 -3.91233e-19)
(0.346583 0.227614 9.82787e-19)
(0.742743 0.281511 -7.73948e-19)
(0.649676 0.325031 0)
(0.66451 0.262916 6.64172e-21)
(0.521844 0.48141 7.26708e-19)
(0.395169 0.530573 -2.62221e-18)
(0.360105 0.422197 -4.96533e-20)
(0.424547 0.394559 0)
(0.461112 1.0016 1.02856e-18)
(0.717789 0.94004 1.15239e-18)
(0.617938 1.08345 -1.34751e-18)
(0.703396 0.950843 -5.11924e-19)
(0.912728 0.9202 -1.67538e-19)
(0.907378 1.05053 1.72165e-19)
(0.722868 0.672992 -1.84195e-18)
(0.76322 0.92941 4.81833e-19)
(0.962285 0.83364 0)
(0.869525 0.769763 -6.74889e-19)
(0.850992 0.323315 6.22319e-19)
(1.00462 0.376637 1.09747e-18)
(1.05598 0.256174 1.06113e-18)
(0.881455 0.424586 -1.22969e-18)
(1.04471 0.362156 0)
(1.01452 0.369361 0)
(0.736785 0.424459 -1.5996e-20)
(0.767871 0.258151 0)
(0.686025 0.29141 9.29894e-19)
(0.883043 0.255533 -2.79162e-20)
(0.865648 0.494216 4.99698e-18)
(0.740651 0.53618 1.40039e-18)
(0.76113 0.501959 -1.32866e-18)
(0.712596 0.408037 1.40529e-18)
(0.661975 0.52164 8.07805e-19)
(0.613237 0.411562 -7.77927e-19)
(0.995199 0.0933816 1.84008e-18)
(0.962122 -0.0798994 0)
(0.988626 -0.0119598 1.24036e-18)
(0.904689 0.0990108 -2.77279e-18)
(1.02836 -0.0244631 1.31675e-18)
(0.970589 0.0509179 -2.79012e-18)
(1.03235 -0.00740182 0)
(0.975404 -0.03736 -5.89338e-19)
(1.00285 0.0662176 1.50267e-18)
(0.964971 0.00732666 0)
(0.946549 -0.087714 0)
(-0.0603601 1.79057 0)
(0.190864 1.71218 0)
(0.0297199 1.78178 0)
(-0.0031558 1.8264 0)
(0.0575733 1.79581 6.14151e-19)
(0.0675037 1.78179 -1.723e-19)
(0.0721801 1.69234 -1.92013e-19)
(0.140308 1.702 -1.58938e-19)
(-0.0530604 1.74326 -5.46073e-19)
(0.0546784 1.71474 4.02366e-19)
(0.0176569 1.80342 3.58809e-19)
(0.0282223 1.76088 -4.12778e-19)
(0.00179566 1.74968 -6.72059e-20)
(0.1412 1.77749 -6.02659e-20)
(0.0120234 1.68838 -4.64012e-19)
(0.0980709 1.68194 0)
(0.116483 1.71362 2.58086e-19)
(0.0139615 1.77955 1.63933e-19)
(0.142078 1.63986 -2.35782e-19)
(0.140894 1.62157 0)
(0.156258 1.58347 -9.83319e-19)
(0.15006 1.60549 7.32246e-19)
(0.176158 1.64303 -6.09907e-19)
(0.189811 1.67024 8.63763e-19)
(0.012987 1.52175 0)
(0.0461831 1.67239 -1.39566e-20)
(-0.0103826 1.65986 -5.88774e-19)
(-0.033422 1.64931 0)
(0.0479266 1.80324 1.01519e-20)
(0.0323031 1.76803 1.94039e-19)
(-0.00279433 1.80123 3.5501e-20)
(0.0437474 1.72897 -5.03552e-19)
(-0.00977091 1.74907 1.55533e-19)
(-0.0471442 1.66001 -2.11883e-19)
(0.0466269 1.79952 0)
(-0.0283333 1.8467 0)
(0.00251434 1.76422 1.89828e-19)
(0.0527292 1.74803 -6.25514e-20)
(-0.0381081 1.80538 0)
(-0.0316749 1.78552 1.30564e-19)
(0.0609859 1.74446 -2.68209e-19)
(0.95245 0.165446 0)
(1.06007 0.120681 -1.9949e-19)
(0.97193 0.0502721 -1.36919e-18)
(0.913084 0.0114971 0)
(0.950433 -0.0819082 0)
(1.05336 -0.0865038 -5.06378e-20)
(0.966864 -0.103511 2.30631e-18)
(0.971462 -0.0117588 2.73518e-18)
(0.986158 0.00154391 0)
(1.00889 -0.00853908 0)
(0.971095 -0.0296161 1.37526e-18)
(0.975058 0.0350095 0)
(0.959629 0.0783385 0)
(-0.0988846 1.81667 0)
(-0.0227988 1.6579 6.01912e-20)
(-0.0354108 1.67745 5.49077e-20)
(0.00474761 1.78266 0)
(0.14268 1.75274 1.36365e-19)
(0.085464 1.76946 -3.08237e-20)
(0.0239407 1.75008 0)
(0.428497 1.63022 0)
(0.354806 1.56847 -1.04913e-18)
(0.371395 1.55564 0)
(0.450263 1.7736 1.18721e-18)
(0.539876 1.76435 0)
(0.523087 1.78491 -4.62114e-19)
(0.570791 1.51061 -3.52245e-20)
(0.575143 1.42395 -1.94958e-18)
(0.590206 1.42238 2.448e-18)
(0.469482 1.42101 4.33099e-19)
(0.489832 1.45911 0)
(0.566868 1.48217 0)
(0.630017 1.43015 0)
(0.49586 1.39121 -1.64408e-18)
(0.397794 1.51934 -1.02765e-18)
(0.354835 1.47075 -2.31073e-19)
(0.456433 1.5181 1.80686e-19)
(0.367547 1.46381 0)
(0.469085 1.44921 0)
(0.435619 1.42697 -4.27131e-19)
(0.393028 1.42684 0)
(0.472537 1.49925 0)
(0.535592 1.4085 -1.28572e-18)
(0.44682 1.27126 -8.87441e-20)
(0.718344 1.51161 0)
(0.641736 1.57546 2.06162e-18)
(0.685871 1.28638 -4.29249e-19)
(0.91275 1.18477 0)
(0.760836 1.09705 7.34691e-19)
(0.406322 1.4873 0)
(0.446737 1.25862 0)
(0.741067 1.50499 8.67179e-19)
(0.711035 1.54982 -5.98241e-19)
(0.701645 1.53177 -3.37915e-19)
(0.708256 1.54246 -3.18514e-19)
(0.724964 1.46693 0)
(0.690181 1.49072 4.4616e-19)
(0.769459 1.50191 -7.07774e-19)
(0.765784 1.45586 -1.87988e-20)
(0.57938 1.5246 0)
(0.578583 1.57607 -4.87812e-19)
(0.636069 1.53841 0)
(0.808244 0.171836 0)
(0.80418 0.18257 0)
(0.729618 0.206381 0)
(0.789244 0.255076 1.45444e-18)
(0.753487 0.207375 8.01552e-19)
(0.958869 -0.0258169 -9.97036e-19)
(0.899606 0.0460478 0)
(0.880046 0.0273348 4.30484e-19)
(0.839864 0.12241 1.71436e-18)
(0.829455 0.0253006 -1.10915e-18)
(0.834373 2.31097 1.05882e-19)
(0.852453 2.13642 0)
(0.790443 2.38995 2.0366e-19)
(0.151744 2.50239 -1.76095e-19)
(0.328365 2.08529 -1.24181e-18)
(0.162903 1.50731 1.48022e-18)
(0.244067 1.55001 0)
(-0.146032 0.830079 -2.43443e-19)
(-0.027909 1.0191 1.83763e-18)
(-0.233966 0.497029 -3.21117e-19)
(0.125254 0.485173 3.76104e-19)
(0.391998 0.533154 9.42641e-19)
(0.550673 0.535469 0)
(0.242514 0.775421 0)
(0.152694 0.720789 0)
(0.842788 0.729756 -1.69148e-18)
(0.780772 0.555971 -1.34206e-18)
(0.868758 0.633686 1.13106e-18)
(0.820458 0.492426 -1.04527e-18)
(1.01784 0.614126 0)
(0.95879 0.650178 -3.44562e-19)
(0.756426 0.342739 -1.86995e-18)
(0.729725 0.306528 -2.32312e-18)
(0.616789 0.446535 -1.47906e-18)
(0.653802 0.384675 -1.41573e-18)
(0.749965 0.333556 -1.10489e-18)
(0.715011 0.328923 1.39681e-18)
(1.03049 -0.0046084 -1.39765e-18)
(1.05511 0.0207992 2.90882e-18)
(1.04599 0.0694276 1.76962e-18)
(1.05486 -0.0581224 -2.11945e-18)
(0.852144 0.00426031 0)
(0.833319 -0.0130339 -2.16025e-18)
(0.100302 1.6896 1.19037e-19)
(-0.00962974 1.73446 0)
(0.118373 1.77034 7.27796e-19)
(0.0408021 1.73064 -6.50685e-19)
(0.0552733 1.71934 3.5886e-19)
(0.0780483 1.79206 0)
(0.0814071 1.82666 0)
(0.0406527 1.71367 -6.92533e-20)
(-0.000933574 1.59 6.1939e-20)
(0.075668 1.61115 1.14786e-20)
(-0.168867 1.78893 -1.27693e-19)
(0.0244961 1.71684 7.90513e-20)
(0.531155 1.59747 -1.41127e-18)
(0.573404 1.61337 1.50781e-18)
(0.467688 1.69826 -6.87908e-19)
(0.607166 1.62004 6.81433e-20)
(0.621131 1.69124 0)
(0.592924 1.76881 -4.31021e-19)
(0.546288 1.7577 4.35194e-19)
(0.556465 1.70271 6.50468e-19)
(0.611995 1.72313 0)
(0.650176 1.6228 -1.54228e-18)
(0.547733 1.45059 1.53838e-18)
(0.253792 1.52149 2.19166e-18)
(0.264732 1.49095 -1.46772e-18)
(0.222173 1.52865 2.47532e-19)
(0.360546 1.46825 5.25533e-19)
(0.250692 1.42909 -6.23357e-19)
(0.613153 1.44824 -1.36439e-18)
(0.72684 1.46318 0)
(0.627186 1.42282 -1.53639e-18)
(0.682157 1.46848 0)
(0.687543 1.50191 0)
(0.490554 1.84879 -8.80632e-19)
(0.507577 2.00517 -6.74737e-19)
(0.407135 2.05 8.29275e-19)
(-0.568371 1.52666 0)
(-0.365503 1.45715 -7.28729e-19)
(0.00597945 1.56979 -3.16755e-18)
(0.348227 1.77044 0)
(0.0450097 2.16306 1.14655e-18)
(-0.302283 2.19456 0)
(0.46956 0.901711 -2.15893e-18)
(0.619407 0.932008 2.87777e-18)
(0.664835 0.738022 -5.26782e-19)
(0.33186 0.73832 -2.56732e-19)
(0.439643 0.710312 -1.01778e-18)
(0.566136 1.8082 4.9617e-19)
(0.635148 1.70808 -7.236e-19)
(0.523917 1.838 1.48179e-18)
(0.522273 1.73422 -9.97529e-19)
(0.603466 1.58983 -1.40955e-18)
(0.635759 1.70585 -1.14492e-19)
(0.666396 1.66132 4.12295e-19)
(0.534136 1.68777 8.83404e-20)
(0.53682 1.57221 6.32908e-19)
)
;

boundaryField
{
    wall-4
    {
        type            noSlip;
    }
    velocity-inlet-5
    {
        type            fixedValue;
        value           uniform (1 0 0);
    }
    velocity-inlet-6
    {
        type            fixedValue;
        value           uniform (0 3 0);
    }
    pressure-outlet-7
    {
        type            zeroGradient;
    }
    wall-8
    {
        type            noSlip;
    }
    frontAndBackPlanes
    {
        type            empty;
    }
}


// ************************************************************************* //
