/*--------------------------------*- C++ -*----------------------------------*\
| =========                 |                                                 |
| \\      /  F ield         | OpenFOAM: The Open Source CFD Toolbox           |
|  \\    /   O peration     | Version:  2412                                  |
|   \\  /    A nd           | Website:  www.openfoam.com                      |
|    \\/     M anipulation  |                                                 |
\*---------------------------------------------------------------------------*/
FoamFile
{
    version     2.0;
    format      ascii;
    arch        "LSB;label=32;scalar=64";
    class       volVectorField;
    location    "4";
    object      U;
}
// * * * * * * * * * * * * * * * * * * * * * * * * * * * * * * * * * * * * * //

dimensions      [0 1 -1 0 0 0 0];

internalField   nonuniform List<vector> 
38
(
(0.984474 -0.0152041 0)
(0.998013 -0.00207913 0)
(0.975943 -0.00814036 0)
(0.977217 -0.0147497 0)
(0.967716 -0.00191266 0)
(0.997971 0.000406598 0)
(0.999633 0.00208513 0)
(0.974679 -0.0304147 0)
(0.999985 -0.00479945 0)
(1.00482 -0.000342257 0)
(0.989399 0.0101263 0)
(0.960079 0.0150496 0)
(0.974053 0.01333 0)
(0.979263 0.00575924 0)
(0.945645 0.0137724 0)
(0.995931 0.0018472 0)
(0.99892 -0.0408108 0)
(1.00549 -0.0507443 2.7378e-19)
(1.009 0.010066 6.12899e-21)
(0.990521 0.0119217 -5.66563e-19)
(1.00988 -0.00476406 -2.35122e-21)
(0.983822 -0.0302616 0)
(0.981629 -0.0226426 0)
(1.0179 -0.00905298 3.61413e-19)
(1.01781 -0.0148694 -4.08867e-19)
(1.01472 -0.00887154 0)
(1.01095 -0.00491629 -3.52812e-19)
(1.02624 0.0149453 4.226e-19)
(0.998431 0.0010205 0)
(1.00313 0.00780092 0)
(0.9876 -0.0107825 0)
(0.994467 0.00343047 0)
(1.01444 -0.0198419 0)
(1.01119 -0.0206675 0)
(0.983105 0.0253886 0)
(1.01617 0.0447556 0)
(1.02624 0.0506712 1.05611e-20)
(1.01393 0.0334281 -1.9324e-19)
)
;

boundaryField
{
    wall-4
    {
        type            noSlip;
    }
    velocity-inlet-5
    {
        type            fixedValue;
        value           uniform (1 0 0);
    }
    velocity-inlet-6
    {
        type            fixedValue;
        value           nonuniform List<vector> 0();
    }
    pressure-outlet-7
    {
        type            zeroGradient;
    }
    wall-8
    {
        type            noSlip;
    }
    frontAndBackPlanes
    {
        type            empty;
    }
    procBoundary4to1
    {
        type            processor;
        value           nonuniform List<vector> 2((0.952535 -0.00510423 0) (1.01165 0.00620561 0));
    }
    procBoundary4to3
    {
        type            processor;
        value           nonuniform List<vector> 3((0.999025 0.02197 -1.48663e-18) (0.999646 0.00193719 0) (0.999529 0.00122828 0));
    }
    procBoundary4to5
    {
        type            processor;
        value           nonuniform List<vector> 6((0.991083 0.0145617 4.26312e-19) (1.0139 -0.00374038 0) (1.02647 0.0128336 0) (1.032 -0.0117331 0) (1.02925 -0.00396121 1.22091e-20) (1.00354 0.0159287 -2.03124e-19));
    }
}


// ************************************************************************* //
