/*--------------------------------*- C++ -*----------------------------------*\
| =========                 |                                                 |
| \\      /  F ield         | OpenFOAM: The Open Source CFD Toolbox           |
|  \\    /   O peration     | Version:  2412                                  |
|   \\  /    A nd           | Website:  www.openfoam.com                      |
|    \\/     M anipulation  |                                                 |
\*---------------------------------------------------------------------------*/
FoamFile
{
    version     2.0;
    format      ascii;
    arch        "LSB;label=32;scalar=64";
    class       volScalarField;
    location    "17";
    object      p;
}
// * * * * * * * * * * * * * * * * * * * * * * * * * * * * * * * * * * * * * //

dimensions      [0 2 -2 0 0 0 0];

internalField   nonuniform List<scalar> 
918
(
0.23718
0.919796
0.00909431
0.236362
-0.000847801
0.886931
-0.831394
0.419705
0.217225
-0.350551
0.010173
0.207848
0.747309
0.51477
-1.45765
0.00928666
0.373877
-0.712336
0.215997
0.00360142
0.494472
0.22397
0.226941
0.21748
0.276169
0.50744
0.627793
0.00280463
-0.00230551
-0.00276876
0.00399313
-0.0046459
0.00185059
0.770557
0.821667
0.844327
0.187313
0.0207199
-0.681349
-0.760407
-0.746953
-0.888542
0.408322
0.412267
-0.477428
0.42286
0.438608
0.204813
0.216525
0.21745
0.218736
0.217569
0.218999
0.156619
-0.397393
-0.439715
-0.288267
-0.2286
0.051801
0.00543301
-0.00623381
0.018848
0.015563
0.145739
0.20453
0.202797
0.213346
0.222296
0.859345
0.831235
0.857379
0.771106
0.787618
0.725244
0.697784
0.534634
0.55592
0.5008
0.491413
-1.89963
-2.87109
-0.856344
-0.596161
0.000807685
0.0146256
0.0197871
0.359395
0.367331
0.368945
0.381359
0.796801
-0.707911
-0.829145
0.21595
0.214767
0.223571
0.224208
0.220209
0.21931
0.0101041
0.0149663
-0.00655931
0.000691806
-0.00016185
0.475487
0.471987
0.217975
0.214984
0.230655
0.252431
0.242082
-0.011003
0.288209
0.310653
0.309213
0.489121
0.486599
0.494155
0.601136
0.564273
0.66525
0.688422
0.0108934
0.00305529
0.0067622
0.00524277
0.00622827
0.182521
0.175692
0.199301
0.190243
0.192542
-0.0626354
-0.198509
0.10513
0.126638
-0.585098
-0.653613
-0.770781
-0.780104
-0.907309
0.232003
0.394525
0.398905
-0.491444
-0.408732
-0.557616
-0.335188
-0.407836
0.196554
0.202581
0.198041
0.212237
0.206842
0.208792
0.220821
0.21786
0.219418
0.206267
0.306325
0.0885089
0.0886499
-0.583133
-0.478914
-0.559594
-0.159682
-0.117975
0.0506542
0.0527054
0.0392887
0.0407302
-0.0777907
-0.0204093
-0.0502173
0.0192919
0.017661
0.139148
0.130264
0.154295
0.160466
0.195368
0.196464
0.199566
0.198423
0.648441
0.670709
0.678372
0.652205
-3.88032
-6.70031
-0.26248
-0.118046
0.0028622
0.00269398
0.00157376
0.00393096
0.00279905
0.00128449
0.0241475
0.0216864
0.021009
0.0237967
0.342819
0.348275
0.744103
0.729498
0.694181
0.66462
0.204062
0.206098
0.211771
0.20759
0.019984
0.0176503
0.020395
0.438361
0.45814
0.456546
-0.0456914
-0.134524
0.0365039
0.063286
0.32973
0.315591
0.33247
0.372538
0.410648
0.695817
0.714238
0.712477
0.721091
0.76515
0.781578
0.746864
0.165375
0.172288
0.168766
0.203385
0.200606
0.201355
0.19578
0.198153
0.19492
-0.352872
-0.739485
0.182632
0.195769
0.168269
0.172396
0.311464
0.386449
0.374968
0.38536
0.388201
-0.270608
-0.337634
0.0570506
0.0606819
0.0880941
0.118971
0.102926
0.619519
0.580289
0.630162
0.603492
0.565132
0.590337
-0.692385
-2.2211
-1.32288
0.249124
0.0528074
0.144729
0.0389781
0.0243461
0.0303021
0.690634
0.769208
0.385097
0.588879
0.548469
0.453371
0.484792
0.537216
0.462094
0.496733
0.53319
0.5152
0.184203
0.180292
0.159174
0.464517
0.531233
-0.160503
-0.208344
-0.266035
0.0445302
0.0454485
0.057866
0.73827
0.602182
0.692742
0.214875
0.215539
0.0125945
0.0223341
0.219566
0.2196
0.00650575
0.00624136
0.124853
-1.17047
-0.164509
0.208085
0.198645
0.215101
-0.409436
0.0918166
-0.00311495
0.0986483
0.0545588
0.207138
0.155356
0.121799
0.00637709
0.0160477
0.00908655
-0.552285
0.212563
0.210939
0.21472
0.215685
0.216414
0.00705004
0.00976254
0.00667785
0.00744346
0.00758523
0.00523679
0.181934
0.19554
-0.480449
0.214687
0.216921
0.216701
0.209938
0.215371
0.213476
0.0130413
0.0079179
0.00773191
-0.0595245
0.0547575
0.384759
0.497173
0.333345
0.105151
-0.140794
0.279405
0.349359
0.244676
0.414774
0.378224
0.406671
-0.105184
-0.25215
-0.0987264
-0.155645
0.205616
0.204346
0.196962
0.195186
0.210115
0.208271
0.212704
0.209736
0.212433
0.213814
-0.371695
-0.287371
-0.452161
-0.470844
0.0359199
0.293278
-0.0185454
0.0232691
0.0939194
0.0054718
0.013841
-0.0126818
-0.0162806
0.0261599
0.0504944
0.0758391
0.0474988
0.0540611
0.0277813
0.021467
0.036444
0.0286576
0.202043
0.198723
0.205972
0.212945
0.162746
0.16578
0.137746
0.15298
0.142957
0.0869763
0.119377
0.0985232
0.00682342
0.00763031
0.00519047
0.0190208
0.0219904
0.00979972
0.00810724
0.0119837
0.00932693
0.00844794
0.0113248
0.0146333
-0.51425
-0.60239
0.662015
0.604581
-0.10296
0.201689
0.208115
0.204793
0.209559
0.212781
0.213516
0.211315
0.208087
0.19605
0.198354
0.19445
0.193738
-0.425224
-0.560264
-0.376193
-0.439817
-0.172217
0.320632
0.0663749
0.00795699
0.00349883
0.212341
0.590444
0.403754
0.449605
0.475994
-0.671134
-0.269775
-0.60056
0.0124929
-0.168436
0.382317
0.436711
0.461746
0.406041
0.353473
-0.427376
0.207641
-0.350592
-0.311495
-0.121362
-0.221726
0.428735
0.362352
0.3705
0.395761
0.419573
0.371405
0.351708
0.349283
0.385225
0.390124
0.185495
-0.0264076
-0.073296
-0.108299
0.349385
0.225927
0.282209
0.200789
0.200312
0.203729
0.202378
0.186006
0.192755
0.188324
0.193332
0.196337
0.205844
0.205454
0.201399
0.203769
-0.201046
-0.151589
-0.434157
-0.499973
-0.498652
-0.530672
-0.469186
-0.647026
-0.611888
-0.158734
-0.00305065
-0.59365
-0.466343
-0.511037
-0.432012
-0.34331
-0.296589
-0.0485091
0.0827541
-0.0650526
-0.00105884
0.03459
0.0467065
0.00204876
-0.00684454
-0.0486439
-0.0126156
0.0721214
0.0566234
0.0671267
0.0305547
0.0248974
0.0135408
0.0154951
-0.0572581
-0.07285
-0.0500405
-0.0817738
0.0185395
0.0204206
0.0238618
0.0312156
0.0333457
0.0371507
0.194025
0.195132
0.194078
0.208544
0.219605
0.23432
0.203102
0.181096
0.173618
0.173851
0.152465
0.159425
0.157572
0.168368
0.186071
0.193349
0.19122
0.193682
0.180063
0.181281
0.168721
0.172636
0.153783
0.136652
0.126268
0.0145353
0.00917466
0.0107981
0.0112293
0.008331
0.00922402
0.0342411
0.0297132
0.0333099
0.0267179
0.0245421
0.0148011
0.0144853
-0.430314
-0.343224
-0.511307
-0.537934
-0.610283
0.575971
0.69988
0.528183
0.291256
0.323966
0.529019
0.670568
0.264966
0.433901
0.503377
0.197172
0.48873
0.20636
0.206529
0.204204
0.203071
0.204065
-0.330925
-0.229477
-0.219689
-0.16508
-0.0432255
0.0706045
-0.0557823
-0.15368
-0.0180975
-0.00790575
0.315806
0.330809
0.274097
0.300682
0.299795
0.127807
0.202048
0.256398
0.211669
0.2535
0.275156
0.240711
0.267432
0.215229
0.175419
0.174468
0.123635
0.140758
0.118333
0.102751
0.196443
0.176534
0.185998
0.178158
0.197529
0.225163
0.220483
0.243125
0.257128
0.185276
0.147948
0.156818
0.183453
0.146411
0.158343
0.171325
-0.106969
-0.193283
-0.114972
-0.413572
-0.319917
-0.336215
-0.381911
-0.344875
-0.0553946
-0.766114
-0.729427
-1.36703
0.146423
0.622271
0.379379
0.348777
0.415807
0.390815
0.391165
0.426775
0.435403
0.33802
0.356327
0.357773
0.315018
0.340364
0.366386
0.3659
0.189095
0.0757309
0.0616914
0.0331155
-0.0868751
-0.0561972
0.146913
0.0687163
-0.00203575
0.0039907
0.16306
0.0598216
0.120873
0.156735
0.0912035
0.0491172
0.239261
0.308124
0.297807
0.272629
0.191573
0.20444
0.227701
0.261051
0.288581
0.322782
0.194571
0.198526
0.199812
0.198148
0.19434
0.197503
0.19789
0.200137
0.201164
0.203672
0.202732
-0.0401518
-0.0590934
-0.114136
-0.070423
-0.368392
-0.425676
-0.511453
-0.460821
-0.0967806
-0.135108
-0.278582
-0.186276
-0.130084
-0.100625
-0.233071
-0.217629
-0.277683
-0.385706
-0.221278
-0.00620546
0.114219
-0.0273764
-0.291613
-0.173949
-0.0971264
-0.0237657
0.0357912
0.0312878
0.00772149
-0.0153852
0.0178146
0.0127463
0.00961129
0.0141441
0.0123986
0.012788
0.0168966
0.0162844
0.0171027
0.016004
0.0170571
0.18243
0.176316
0.176706
0.172407
0.171978
0.182202
0.186582
0.187958
0.192287
0.194404
0.18624
0.190489
0.193192
0.0222915
0.0188274
0.0220105
0.0158921
0.0166889
0.0156185
0.0145995
-0.15785
-0.235485
-0.164381
-0.316678
-0.438474
-0.394103
0.134718
0.114362
0.146087
0.364807
0.231344
0.127068
0.206672
0.318098
-0.0338305
0.173433
-0.00623995
0.553806
0.433449
0.584778
0.242752
-0.0929118
0.0530316
0.105074
-0.0872357
-0.0091381
0.00221706
-0.105777
-0.0716103
-0.042872
0.052071
-0.0626192
-0.0905918
-0.346032
-0.17922
-0.0238321
-0.0436249
0.0850991
0.144539
-0.0997218
-0.155705
-0.19748
0.302818
0.324669
0.341812
0.310648
0.335107
0.261585
0.252827
0.270168
0.280684
0.27502
-1.10142
-0.813556
-1.75777
-1.07592
-0.630793
0.173717
0.135056
0.409906
0.309921
0.391389
0.375007
0.34021
0.304637
0.310218
0.346713
0.0593268
0.165746
0.142852
0.145055
0.0525567
-0.0102883
0.273854
0.266886
0.305033
0.3291
0.296623
0.330029
0.19069
0.190452
0.191701
0.188206
0.187852
0.189612
-0.174082
-0.158179
-0.290776
-0.352023
-0.381715
-0.31722
0.028979
0.0210193
0.018069
0.0187438
0.0264018
0.0289447
-0.168473
-0.200449
-0.290626
-0.231146
-0.325669
-0.392783
-0.410873
-0.318081
-0.232629
-0.231874
0.112334
0.365017
0.204465
0.367552
0.22396
0.268007
0.147882
0.144001
0.175405
0.0446319
0.113789
-0.133782
-0.630298
-0.542608
0.421602
0.443169
0.228478
0.034707
-0.189241
0.00557818
0.223114
0.164143
0.205091
0.270503
0.263996
-0.337337
-0.259858
-0.0241411
0.202442
-0.0847726
-0.107322
-0.103736
0.0531007
-0.0103434
)
;

boundaryField
{
    wall-4
    {
        type            zeroGradient;
    }
    velocity-inlet-5
    {
        type            zeroGradient;
    }
    velocity-inlet-6
    {
        type            zeroGradient;
    }
    pressure-outlet-7
    {
        type            fixedValue;
        value           uniform 0;
    }
    wall-8
    {
        type            zeroGradient;
    }
    frontAndBackPlanes
    {
        type            empty;
    }
}


// ************************************************************************* //
