/*--------------------------------*- C++ -*----------------------------------*\
| =========                 |                                                 |
| \\      /  F ield         | OpenFOAM: The Open Source CFD Toolbox           |
|  \\    /   O peration     | Version:  2412                                  |
|   \\  /    A nd           | Website:  www.openfoam.com                      |
|    \\/     M anipulation  |                                                 |
\*---------------------------------------------------------------------------*/
FoamFile
{
    version     2.0;
    format      ascii;
    arch        "LSB;label=32;scalar=64";
    class       surfaceScalarField;
    location    "17";
    object      phi;
}
// * * * * * * * * * * * * * * * * * * * * * * * * * * * * * * * * * * * * * //

dimensions      [0 3 -1 0 0 0 0];

oriented        oriented;

internalField   nonuniform List<scalar> 
1300
(
3.75095
5.62643
-6.10759
3.75095
-5.92791
5.62643
-4.55093
4.55093
-1.35778
1.35778
1.87666
1.87429
-3.02026
3.02026
-4.43604
4.43604
-2.72885
2.72885
-5.24649
5.24649
-5.06837
5.06837
4.68463
-4.68463
-4.83812
4.83812
-1.81214
1.81214
-3.73678
3.73678
3.17165
-3.17165
-4.79787
4.79787
-0.469081
0.469081
-0.553383
4.30434
3.19757
3.19757
-2.44577
2.44577
-4.85179
4.85179
6.21836
-6.21836
9.25807
-9.25807
-3.15049
-3.41524
1.32192
-8.169
-4.60599
-4.60599
-8.44041
8.44041
-2.81398
2.81245
2.92719
-2.92719
-1.75063
1.75063
-4.51267
-0.0382611
-4.51267
4.51366
0.0372723
4.51366
-1.45457
0.0967905
-1.45457
4.05377
-4.05377
1.19787
0.159913
1.19787
3.06476
-3.06476
-1.87716
3.75382
1.87379
-1.87161
6.17595
-1.87934
3.75363
-5.28979
5.28979
-2.99308
-0.0271784
-2.99308
3.27026
-0.250004
3.27026
-5.32408
5.32408
-4.2903
-0.145737
-4.2903
4.53445
-0.0984065
4.53445
2.95337
-2.95337
-2.76307
0.0342193
-2.76307
2.67763
0.0512257
2.67763
0.353564
5.27287
-5.97999
8.79245
-5.27287
0.0263723
5.20853
0.0379657
5.20853
-5.10612
0.0377518
-5.10612
5.00899
0.0593762
5.00899
4.77682
-0.0921807
4.77682
-4.79928
0.114642
-4.79928
-3.32801
-3.43252
-4.93615
0.0980289
-4.93615
-1.82899
0.0168484
-1.82899
1.74762
0.0645246
1.74762
-3.54235
3.54235
-4.19098
0.454201
-4.19098
3.12697
0.0446819
3.12697
1.86869
1.88226
5.61964
-5.61964
2.448
-4.72342
-0.074446
-4.72342
-4.89203
-4.36604
4.89203
-0.0941676
-0.788444
0.319362
-0.788444
3.15946
0.0381105
3.15946
2.60181
0.0758105
-2.60181
0.156044
3.38251
-3.38251
1.80479
0.640977
1.80479
-5.57045
5.57045
4.949
0.0599893
-4.949
0.0972086
6.15766
0.0607032
6.15766
-6.1996
-0.0187642
-6.1996
3.35463
-6.76987
-3.42577
4.72602
0.112104
-4.72602
0.120026
2.89485
0.032337
2.89485
-2.9124
2.9124
-2.97902
0.0518303
-2.97902
-2.16712
0.416494
-2.16712
1.42786
0.322768
1.42786
-4.38449
-0.128182
-4.38449
-4.435
0.244014
4.435
0.0786613
0.904615
-0.904615
-1.57268
0.118114
-1.57268
-4.20813
-0.176358
4.20813
-0.154356
-3.93439
-0.119388
-3.93439
-3.02537
0.0463522
3.02537
0.0393875
3.112
0.0474573
-3.112
0.047242
-1.8708
3.75306
-1.88015
3.75395
-5.12426
-0.165536
-5.12426
5.27546
0.0143295
5.27546
3.33909
0.397688
-3.33909
0.346015
3.69985
-0.429589
3.69985
-5.33898
0.0149027
-5.33898
5.24443
0.079648
5.24443
4.05307
-0.353219
-4.05307
-0.237234
4.59752
-0.0630718
4.59752
3.0063
-0.0529324
3.0063
-2.91075
-0.0426105
-2.91075
2.79645
-2.79645
2.77708
0.0193752
-2.77708
0.0140075
-11.1328
11.114
-0.0351558
-11.0976
5.17337
5.17337
4.19951
0.577301
4.19951
-5.0099
0.210624
-5.0099
3.3181
-6.74387
3.42285
-6.75086
3.42721
-11.5962
3.35595
-6.78847
5.08246
-5.08246
5.01284
0.069625
-5.01284
0.0766838
-1.82227
-0.00671707
-1.82227
-2.89743
-0.644911
-2.89743
4.13063
-0.588283
4.13063
-3.03261
3.03261
-3.08229
0.0496756
3.08229
0.0446752
4.65763
-0.0601154
-4.65763
-0.0657862
1.00976
0.188107
-1.00976
0.221316
3.58171
-0.199205
3.58171
-3.20061
-0.181901
-3.20061
-1.81368
-0.0085906
1.81368
-0.0088877
-5.81813
0.247687
-5.81813
-11.1906
0.0930306
-11.1527
-6.10657
-6.10657
2.33384
11.1263
-2.88611
-0.0246489
2.88611
0.00874741
2.97571
0.0569091
-2.97571
0.0633071
-2.84864
0.052191
2.84864
0.0637542
-2.55498
0.387863
-2.55498
-0.99657
0.99657
-1.18947
0.192901
1.18947
0.238388
1.14038
-0.235768
1.14038
1.6781
0.0695209
-1.6781
0.105411
-3.83313
-0.101259
-3.83313
5.25604
0.0194193
5.25604
-3.08176
-0.118851
3.08176
-0.0754573
-0.0332881
11.1473
-5.14008
0.0339632
5.14008
-11.208
11.2419
-3.23761
0.68263
3.23761
0.9619
5.29578
0.274672
-5.29578
0.285875
5.16688
0.0775575
-5.16688
0.0844157
-2.3782
-0.519239
-2.3782
-4.73559
-0.388663
4.73559
-0.604966
-11.476
-0.202549
11.6786
-11.4167
6.02068
0.136975
-6.02068
11.3789
-0.864485
-0.0401297
0.864485
0.132085
1.46666
-0.326281
1.46666
3.74137
-0.159653
-3.74137
-0.0917624
-5.32347
-0.0155115
5.32347
-0.0674285
-1.89715
-0.481046
1.89715
-0.430485
-4.2665
4.30461
1.90945
-3.31438
-3.45548
-7.68042
1.8512
1.90186
4.29919
-7.16949
-4.42672
-7.04946
7.27529
-6.98941
-9.30553
9.21335
7.45771
-7.5771
-5.78055
5.82523
6.4816
-6.44221
1.8785
1.87532
6.29146
-6.31863
-15.9163
15.7507
9.40406
-9.5498
12.0239
-12.009
-13.0688
13.1463
-5.7561
5.79032
-6.63512
6.59251
-6.80111
6.72566
-3.2709
-3.47995
9.27391
-9.17588
11.7005
-11.775
-8.01015
8.46435
3.38279
0.921817
3.43025
-1.88185
3.76035
-1.87179
3.78124
3.43564
-6.70654
3.30823
-6.76371
6.08323
5.61732
-5.98906
-1.69136
-5.85348
5.88581
-5.81932
5.88307
8.9751
-9.01336
-1.88619
3.76152
-1.86775
3.76962
-3.42424
-2.35631
3.37956
0.919632
5.67132
3.60259
-5.78342
-1.26604
-7.66726
7.50761
-7.96985
7.78795
-0.458394
5.82713
-5.36874
4.3934
-1.55302
7.38015
5.72227
5.93289
5.8684
-5.59372
1.12101
-6.48975
-6.39254
-2.63166
2.74977
2.66682
-2.5069
5.88391
1.57381
5.72955
-5.481
-2.0961
-5.58226
3.81614
2.00908
3.86582
4.06677
2.41483
4.11312
3.02846
-3.03647
0.00800821
-3.05799
6.08645
0.72505
-5.4143
-4.49467
4.41516
1.8763
4.16516
-4.51308
-1.80556
-4.16706
-9.89771
-6.01856
-10.2864
9.63197
6.11877
9.6463
-10.0193
9.95183
6.49056
2.9135
6.39216
-5.80393
-3.74586
-6.04117
10.7259
-1.75821
-8.96769
-7.60376
-5.465
7.52411
4.49982
7.84551
5.3008
7.92993
3.37028
7.35562
-7.8701
2.40511
-3.84867
-1.90743
-3.83466
3.74411
2.04621
3.79534
-4.12991
-2.50521
-4.15456
-4.19565
-2.60546
4.24858
2.34392
-4.30026
-3.66958
4.41911
2.30654
3.14042
-7.56714
3.64806
-7.12801
-6.4801
-2.69579
-6.40341
4.21085
2.59712
-6.80797
-2.49569
10.9508
-5.33345
9.2594
-7.22681
-4.54819
-7.29259
-6.72942
-1.28073
-6.48541
-8.77368
8.25444
-9.18378
8.5955
13.0036
-6.27153
-6.73205
-3.97072
-2.4715
3.92348
-0.493228
-3.71036
3.71837
0.0499872
3.83122
4.75304
4.25981
-3.88958
-1.92974
-3.82627
3.83561
2.04747
3.8878
6.73923
2.23586
6.77651
-6.40994
-2.60341
-6.53813
9.07845
-8.66196
2.95051
-2.9591
5.20984
2.57811
-5.01063
-2.65663
6.01458
-3.03685
-2.97772
-12.2297
10.6029
1.62678
-4.84952
-0.456124
0.0129574
-5.51691
-3.78862
5.40227
0.530621
11.1335
7.3449
-5.51356
5.76124
6.16504
6.22503
-0.167519
5.84324
-5.16061
5.19824
-2.22683
-2.97141
5.26007
-5.43642
-1.27806
-5.23122
3.95316
0.293126
1.90509
-1.58573
-2.08366
-0.548003
-1.97825
1.62499
1.04183
1.8131
0.947653
1.80212
-3.00185
0.60799
2.39386
-2.05419
-1.89891
-3.54452
-0.91222
4.45674
5.47174
2.03587
-5.37998
-0.202278
2.73805
-2.67352
-0.750003
-2.79451
2.07288
-2.82288
-3.52246
-1.80632
5.32878
-3.36927
-0.456996
3.31236
0.553455
-3.80284
-2.05063
3.75101
0.362111
-3.13945
6.24318
-3.10373
-5.06919
2.53067
3.55578
4.53976
-4.78962
2.43984
2.34978
-1.23384
4.39442
-0.229262
3.96483
-5.51211
3.70655
5.02839
3.43597
-5.42608
1.25901
-4.25309
9.87025
-8.37153
-1.49872
5.78867
4.08158
7.56753
5.43606
-5.72473
13.2923
-2.17563
-6.1959
6.42872
-2.99276
5.86501
-8.85777
-11.3011
5.10517
-10.5816
10.2939
0.28765
-2.40732
-7.61194
12.9889
-2.05378
-10.9351
7.59252
-6.05233
-4.54701
10.5993
-7.81054
8.29287
-3.54883
-4.74403
-7.9089
-4.10013
7.92441
2.02742
-9.68708
12.0922
-2.33146
5.75574
0.63642
5.69266
5.06365
-5.81012
0.746475
2.74689
-6.29572
4.59772
-10.4078
-5.03183
9.76148
-4.72965
-7.72761
-6.99058
-0.737035
1.89403
10.1981
-7.19483
5.39444
1.80039
3.33799
0.54981
-3.35736
-0.477303
0.354459
4.46571
-4.82017
4.1498
4.22561
3.39011
1.0756
3.79216
2.09365
-3.80091
-0.353651
-4.06882
1.46336
-1.7249
-3.58382
5.04718
-4.01451
0.430692
-2.67696
-3.52622
6.20317
-4.58439
3.08028
3.16289
5.12775
-4.90857
1.38236
-2.42298
-2.48559
2.63215
-4.35705
1.93164
3.11553
4.23818
0.568601
4.98956
4.77192
-7.58668
0.458673
8.37451
-7.10847
1.84701
6.08292
-7.24145
0.250871
-6.15254
1.06915
-6.4026
-5.73882
5.52884
-6.80957
-3.32893
6.07835
0.69816
-6.15701
-0.328403
-5.87833
-2.89535
-6.35938
-3.1542
-6.02958
-8.87892
-1.57995
-7.29898
6.67449
-6.83291
-3.45347
7.43787
1.15762
-7.32352
7.28339
-7.36713
7.04085
0.0944033
3.62396
4.35422
1.88272
-2.39012
4.27284
-4.97011
7.20597
-8.43374
3.46363
3.97002
-6.57344
-4.46371
5.01564
4.06281
5.33841
9.00761
-10.6204
1.61276
-10.9915
12.1409
-1.14937
-16.7667
5.7752
-7.75913
2.69904
0.251472
2.69232
0.665507
2.4079
-3.0734
-2.29359
-2.30248
-2.24964
-3.29337
5.543
1.09036
-3.32924
2.23888
-3.41405
4.50441
-0.102306
-3.22693
5.21594
-2.80804
5.46741
-3.51636
1.95106
3.20653
5.47657
-2.27003
4.20879
-1.63068
1.74121
-4.01124
-1.55215
-2.99247
5.03868
-3.21071
3.6414
-0.218505
3.8599
-4.01092
0.974068
-0.620814
3.60479
3.76084
4.11677
-3.04117
2.87219
-4.50287
-1.13905
-3.93427
-0.818732
-0.251836
-3.73424
3.98607
6.13626
-6.38809
-5.29652
9.60217
-4.30565
7.72737
-5.42911
-2.29826
-4.274
-4.38796
3.88613
1.95711
9.68448
0.197287
-5.6264
-4.96333
-4.00143
3.20344
1.9948
-2.08674
3.71352
2.07378
-0.168692
0.618953
1.19414
1.91175
-1.2928
0.170272
1.74148
-1.41546
1.99856
0.739489
-2.06808
0.0898323
-1.34292
3.4158
1.05094
-2.09276
0.799966
1.13086
-3.35769
4.66902
-2.3437
-2.32533
5.79988
1.17993
-3.52363
4.05129
-3.75816
2.29426
-3.20648
-1.22937
-4.98753
-3.41372
-2.43251
4.67139
-3.11049
5.14635
1.14893
-4.94408
6.09301
-3.50512
1.69881
-2.98599
3.72548
-0.999288
-1.9867
2.72145
2.60733
-2.81048
0.0159704
-0.0890357
2.30981
-2.39884
-0.513074
-2.56727
-4.55327
4.91538
-2.1344
4.57424
2.13844
-1.91681
6.49105
1.81199
-3.7288
-3.2572
-3.7142
-1.37901
3.16074
-1.58062
-4.46055
-6.32466
4.81376
-0.848935
-6.5517
9.10086
-2.54915
-4.67541
0.968856
4.81981
-8.12166
1.82593
-3.52393
5.57692
5.34766
4.49873
-12.3234
1.38829
-6.20462
2.37967
-8.58429
6.46125
-3.37275
8.47792
-11.0771
7.62366
-9.91951
6.9792
-1.6051
5.68508
-4.9386
3.28261
-7.38274
-5.35532
6.82735
-3.91386
7.46377
-4.35402
11.8178
-6.68548
7.02432
4.79348
-1.47586
-5.81674
-6.84013
5.36427
0.18419
5.87685
4.9561
-2.86245
4.60245
2.2598
-4.68279
-2.09725
-6.55251
1.86972
-3.38961
-1.9125
3.78222
3.21525
3.76506
1.29663
-3.28776
6.88936
-7.62639
-2.15971
-3.57911
6.7948
-1.43053
4.15598
-7.7351
-2.24661
4.9292
-0.921212
-4.00799
1.34233
-4.67126
1.58796
-6.25923
5.22161
-5.55001
2.15757
-9.9167
-5.16595
-5.03386
-2.20658
-5.16055
-7.66228
5.45569
-1.88708
5.39631
-8.70794
7.78673
-3.43297
8.88866
-5.29938
-1.05999
5.72987
1.31098
10.1996
0.139489
-4.6032
-1.77984
3.88966
-2.10981
1.4236
-3.59475
0.294909
2.48401
3.31588
-6.43717
-0.13627
-4.73947
-3.91555
7.97836
5.68662
11.8229
1.2025
9.19801
-1.21964
10.4005
4.11877
4.35715
-3.01838
4.63114
0.967688
4.43132
-0.828198
2.77925
1.86412
1.88097
0.792555
2.29493
1.46591
3.269
0.195593
-2.10689
4.66253
-8.66396
-0.963869
-8.08666
1.12669
5.75607
-4.62938
3.11492
-1.12012
1.00511
0.223479
-1.81434
1.59086
-2.74793
-1.98303
-0.241551
-1.54088
2.34084
1.87492
-2.09929
-0.648638
0.288056
-3.70178
2.91842
-2.90245
-0.295125
5.79788
-2.73242
0.333572
-1.03361
-2.2337
-2.7817
2.69187
6.22934
0.26171
3.12561
5.17709
3.12645
0.264002
7.2094
-6.92175
-3.19844
-5.53347
0.927787
5.7476
2.27574
7.92241
7.06921
5.63868
-2.09641
-9.7228
6.49621
-1.86506
5.34684
-1.33885
-4.92038
4.89423
2.31174
-5.59239
0.0423787
-4.878
-6.74306
-0.580399
8.36713
-9.61924
8.55925
5.6639
1.63508
-4.36494
-0.668922
4.17204
0.185113
10.5856
-1.14238
-6.89978
8.04216
-4.61369
3.64982
0.91673
2.79679
2.50759
1.38747
-5.51231
-10.1417
-1.76242
-1.59527
-4.08775
0.368987
-2.24391
6.27887
-2.62905
3.98062
5.41311
6.41822
-2.18995
-4.19814
6.4956
-2.51498
3.90323
)
;

boundaryField
{
    wall-4
    {
        type            calculated;
        value           uniform 0;
    }
    velocity-inlet-5
    {
        type            calculated;
        value           uniform -3.75095;
    }
    velocity-inlet-6
    {
        type            calculated;
        value           uniform -5.62643;
    }
    pressure-outlet-7
    {
        type            calculated;
        value           nonuniform List<scalar> 8(6.10759 5.92791 6.56572 6.84708 6.76053 6.7804 6.74095 6.78316);
    }
    wall-8
    {
        type            calculated;
        value           uniform 0;
    }
    frontAndBackPlanes
    {
        type            empty;
    }
}


// ************************************************************************* //
