/*--------------------------------*- C++ -*----------------------------------*\
| =========                 |                                                 |
| \\      /  F ield         | OpenFOAM: The Open Source CFD Toolbox           |
|  \\    /   O peration     | Version:  2412                                  |
|   \\  /    A nd           | Website:  www.openfoam.com                      |
|    \\/     M anipulation  |                                                 |
\*---------------------------------------------------------------------------*/
FoamFile
{
    version     2.0;
    format      ascii;
    arch        "LSB;label=32;scalar=64";
    class       volVectorField;
    location    "17";
    object      U;
}
// * * * * * * * * * * * * * * * * * * * * * * * * * * * * * * * * * * * * * //

dimensions      [0 1 -1 0 0 0 0];

internalField   nonuniform List<vector> 
918
(
(0.98516 -0.000504033 0)
(0.00500496 2.96625 0)
(-0.00801887 1.61785 0)
(0.979715 0.00212291 0)
(-0.00323401 1.57873 3.95964e-21)
(-0.00703336 2.94879 -1.88381e-18)
(0.850343 1.20605 7.29304e-19)
(0.462785 0.215178 -9.18535e-21)
(0.99991 -0.000305122 0)
(0.00452774 0.889884 0)
(-0.00575381 1.27988 0)
(0.796447 -0.00780582 0)
(0.0110988 2.93039 0)
(0.00135027 2.79473 0)
(-0.0182604 3.16897 1.08341e-18)
(-0.00620469 1.4912 -1.11497e-20)
(0.574294 0.0999457 5.75787e-19)
(0.179706 1.15953 6.45902e-19)
(0.963361 0.00509198 0)
(-0.00406514 1.39786 0)
(0.153426 0.262522 -4.88611e-19)
(1.00184 -0.00502555 0)
(1.00027 -0.00973411 0)
(0.975782 -0.00649189 0)
(0.713441 -0.0294091 0)
(0.018471 2.6302 0)
(-0.0152223 2.91022 6.52083e-19)
(-0.0188832 1.64173 0)
(-0.0191086 1.75404 0)
(-0.0181548 1.63767 0)
(-0.0042194 1.82469 0)
(-0.00234403 1.6024 -3.13292e-21)
(-0.00472975 1.49602 0)
(-0.0206241 2.98758 -6.5942e-23)
(-0.0167036 3.0053 1.46429e-18)
(0.00210272 3.00021 0)
(0.865617 -0.00800306 0)
(0.389564 0.927594 -2.24623e-20)
(0.842701 1.21642 -1.02213e-18)
(0.9937 1.06105 9.61308e-19)
(0.708411 1.30784 -1.70342e-19)
(0.703208 1.28919 9.60513e-19)
(0.48869 0.285783 8.96225e-21)
(0.479398 0.191238 0)
(1.17876 0.570427 0)
(0.461258 0.310131 4.22092e-20)
(0.420958 0.210753 -4.38004e-20)
(0.919826 -0.00727176 0)
(1.00037 9.22276e-05 0)
(0.999918 0.000326953 0)
(1.00343 -0.00779228 0)
(1.00096 -0.00106784 0)
(1.00017 -8.26934e-06 0)
(0.0690089 1.62916 -2.97548e-19)
(0.0112596 0.957765 0)
(0.0484787 0.859085 0)
(-0.0346508 1.00998 0)
(-0.0272669 0.9529 0)
(-0.000502583 1.58173 0)
(-0.013563 1.423 0)
(-0.0183923 1.24813 0)
(-0.00792648 1.47264 0)
(-0.00513642 1.30185 0)
(0.874111 -0.000393988 0)
(0.884106 0.00983256 0)
(0.809229 -0.00210138 0)
(0.877009 0.0146104 0)
(0.781378 -0.00882374 0)
(0.0146989 3.0004 6.8986e-19)
(0.0115193 3.00789 0)
(0.0061338 3.00284 0)
(0.013537 2.99732 7.69441e-24)
(0.00799579 2.95847 -1.0253e-18)
(0.014497 2.98211 0)
(0.0107955 2.90362 0)
(0.024944 2.93049 1.38496e-24)
(0.00417313 2.82512 0)
(0.0314858 2.91546 0)
(-0.00635323 2.74351 0)
(0.309732 3.56734 0)
(-0.132655 3.64936 0)
(0.139939 3.25959 1.00827e-18)
(-0.0112211 2.9927 0)
(-0.0138811 1.8026 0)
(-0.00386015 1.63366 1.09991e-20)
(-0.00508267 1.50434 -1.86072e-20)
(0.631058 0.160741 -1.98392e-19)
(0.583915 0.0569986 -1.93898e-19)
(0.60059 0.194446 -5.96583e-19)
(0.548725 0.125084 -3.97061e-19)
(0.249606 0.931806 0)
(0.270607 1.3048 -6.54279e-19)
(0.363351 1.27937 1.07809e-18)
(0.987893 0.00847719 0)
(0.943341 0.00606346 0)
(1.00031 0.000551778 0)
(1.00288 0.00928474 0)
(1.00297 0.00835762 -1.11719e-18)
(0.99202 0.00977885 8.43494e-19)
(-0.0173561 1.53557 0)
(-0.00721585 1.38254 0)
(-0.027001 1.64705 0)
(-0.0213878 1.57381 0)
(-0.00323706 1.43375 0)
(0.227214 0.280575 1.50467e-19)
(0.27629 0.259923 0)
(0.993595 -0.00824902 0)
(0.954432 -0.00665844 0)
(0.85013 0.0197596 0)
(0.816639 0.0331596 0)
(0.759942 -0.0205834 0)
(1.0098 -0.00574493 0)
(0.761907 0.0502421 0)
(0.627793 -0.0148175 7.72081e-19)
(-0.0355623 2.86577 3.3506e-19)
(0.0435145 2.90752 0)
(0.0570265 2.88308 0)
(-0.00574003 2.69612 0)
(-0.0129064 2.98543 5.99267e-19)
(-0.0182989 2.89567 0)
(-0.0153046 2.98816 -1.89593e-18)
(-0.0134433 2.92526 6.5475e-19)
(-0.0161919 1.81232 0)
(-0.0126132 1.8079 0)
(-0.00273704 1.6312 -2.16438e-22)
(-0.00230776 1.60101 0)
(-0.0057956 1.49305 0)
(0.930511 -0.00529537 0)
(0.852508 -0.00728064 0)
(0.860324 0.00940473 0)
(0.945249 -0.00625273 0)
(0.884067 -0.00712592 0)
(0.50377 1.1223 1.76638e-20)
(0.556084 1.1779 0)
(0.347379 0.863449 5.58021e-21)
(0.291294 0.726156 0)
(0.95411 1.09427 -2.76896e-19)
(1.06778 0.896993 5.64826e-19)
(0.424696 1.38138 0)
(0.55359 1.37014 0)
(0.554545 1.31723 0)
(0.0932405 0.13406 -1.25782e-19)
(0.520548 0.26597 0)
(0.505108 0.168046 1.14182e-19)
(1.03751 0.947335 0)
(1.10412 0.790545 0)
(1.1306 0.73487 -4.89173e-19)
(1.15756 0.628474 0)
(1.20873 0.409353 5.94953e-20)
(0.95629 -0.00798985 0)
(0.962074 -0.00940654 0)
(0.902223 -0.00803638 0)
(0.984226 -0.00903852 0)
(0.974833 -0.00944835 0)
(0.936724 -0.006251 0)
(1.00007 0.00226018 0)
(1.00093 0.00150044 0)
(0.999884 0.000850565 0)
(0.0212954 1.86568 1.81342e-19)
(0.069293 1.58489 0)
(0.0282655 1.85009 8.68571e-20)
(0.0173996 1.60295 -1.52363e-19)
(0.10732 1.16251 -5.35735e-19)
(0.0632546 1.01754 0)
(0.129345 0.984038 0)
(-0.0581918 1.12604 0)
(-0.04124 1.07796 0)
(0.013743 1.73704 -9.21303e-22)
(0.00725521 1.59981 0)
(-0.00267452 1.71819 -3.48468e-20)
(-0.00978609 1.56717 -1.34885e-22)
(-0.0456826 1.26157 0)
(-0.0295216 1.36083 0)
(-0.0287763 1.17961 0)
(-0.00989582 1.5029 0)
(-0.00618719 1.32024 0)
(0.953579 0.014449 0)
(0.894593 0.00180982 0)
(0.934487 0.00957494 0)
(0.861852 0.000311797 0)
(0.813318 0.000219218 0)
(0.904833 0.00487203 0)
(0.896523 0.00401723 0)
(0.808368 -0.00437948 0)
(0.00585981 3.06482 -6.07251e-21)
(0.0164684 3.05808 0)
(0.0147439 2.96916 0)
(0.00851044 2.87631 0)
(0.926802 3.98543 0)
(1.24203 3.31388 1.0123e-18)
(0.0715439 3.08501 0)
(-0.0258938 2.9125 0)
(-0.0160246 1.79643 0)
(-0.0165497 1.79851 0)
(-0.0148987 1.7971 0)
(-0.00858465 1.81265 4.50685e-21)
(-0.0128391 1.81011 0)
(-0.0108883 1.80847 0)
(-0.00222041 1.51289 1.17097e-21)
(0.000533332 1.66214 1.99785e-20)
(-0.00104358 1.64892 1.90194e-20)
(-0.00193293 1.50412 0)
(0.654631 0.116525 2.9101e-19)
(0.594096 0.0256348 -2.8361e-19)
(0.214546 1.51239 0)
(0.291713 0.701929 -2.28163e-19)
(0.136962 1.62755 -7.52378e-19)
(0.171879 1.18326 7.5188e-19)
(0.90385 0.00873107 0)
(0.968469 0.0114114 0)
(0.975144 0.0106084 0)
(0.925687 0.00713692 0)
(-0.0139196 1.51746 0)
(-0.0152906 1.52344 0)
(-0.00723801 1.34701 0)
(0.418529 0.320762 3.88303e-19)
(0.352475 0.301418 -4.73582e-19)
(0.363764 0.234298 0)
(1.12923 0.0829583 -2.59543e-21)
(1.11438 0.0376826 0)
(1.04435 0.0349932 0)
(0.954866 0.00621256 0)
(0.670676 0.0880512 0)
(0.701086 0.0632347 -1.24331e-18)
(0.605517 0.0115085 4.74891e-19)
(0.00994305 2.98236 4.24359e-19)
(-0.0321841 2.86816 4.88256e-20)
(0.00381376 3.05016 -1.31128e-20)
(0.0199887 3.04356 4.71991e-19)
(-0.0150399 2.99656 2.17634e-20)
(-0.0129805 2.94945 -8.81293e-23)
(-0.0172677 3.012 -4.12631e-19)
(0.0147623 3.02411 2.98024e-19)
(0.00726257 3.03666 -4.65791e-19)
(0.930076 0.00722254 0)
(0.930236 0.00108149 0)
(0.848671 -0.00275813 0)
(0.956793 0.0129653 0)
(0.942746 0.0131802 0)
(0.882092 0.00816115 0)
(0.914413 0.0103317 0)
(0.924688 0.0143256 0)
(0.833237 0.00685089 0)
(0.7132 1.40741 3.17133e-19)
(0.748998 1.51896 0)
(0.219079 0.366008 2.57819e-20)
(0.169248 0.563808 2.0696e-19)
(0.25654 0.680196 -1.20912e-19)
(0.221167 0.566489 2.2274e-19)
(0.287793 0.667029 7.25869e-19)
(0.109336 0.161676 2.12837e-19)
(0.576282 0.221997 -4.09837e-19)
(0.547176 0.246506 1.05784e-19)
(0.528978 0.15287 2.1493e-19)
(1.19684 0.465496 2.87741e-19)
(1.21219 0.258179 3.01741e-19)
(0.0338182 1.78967 6.78639e-20)
(0.0255618 1.5794 0)
(0.997023 0.0265408 0)
(0.96538 0.0172309 0)
(0.918564 -0.000771809 0)
(0.0109149 3.07453 0)
(0.0199299 2.94404 8.10616e-19)
(0.0165745 2.9564 0)
(0.00613687 2.8508 -8.04024e-19)
(0.00607963 3.09127 1.92156e-19)
(0.00747844 3.08274 0)
(0.782923 1.82442 -2.36423e-19)
(1.24884 2.50905 6.4887e-19)
(0.765691 1.96625 -1.48445e-18)
(0.0213028 2.98463 -3.10771e-19)
(0.0376802 3.00862 0)
(-0.0316102 2.88307 0)
(-0.00413288 1.68046 -4.36913e-21)
(-0.00176797 1.67415 -2.85986e-21)
(-0.00286036 1.53534 -6.34539e-21)
(0.250317 1.32416 7.12923e-19)
(0.251741 0.462112 -4.94567e-19)
(0.0385428 1.85073 4.86883e-19)
(0.103898 1.7649 -6.33746e-19)
(0.115669 1.41739 1.10201e-19)
(0.00266093 3.11836 -1.13614e-18)
(0.0176758 3.11773 1.21404e-18)
(-0.00859939 2.98125 5.19908e-19)
(-0.00256128 2.97793 -4.60428e-19)
(-0.0214125 2.88255 -5.29509e-19)
(0.00885783 3.09927 -1.40855e-18)
(0.00247135 3.10644 1.36794e-18)
(0.222438 0.589547 0)
(0.152227 0.562536 -3.94941e-19)
(0.134663 0.186695 1.75046e-19)
(0.320765 0.796732 6.5196e-19)
(0.170799 0.208502 -9.96667e-19)
(1.20996 0.170365 -5.31462e-20)
(1.21165 0.310124 0)
(1.19729 0.118416 1.17975e-19)
(0.0241441 1.75589 -7.62186e-22)
(0.0469736 1.77071 0)
(0.025757 1.59391 0)
(0.298447 1.2008 -2.57786e-19)
(0.348721 1.01593 -5.49374e-19)
(0.190951 0.310479 9.34604e-19)
(1.00585 -0.011052 0)
(1.00768 -0.00774641 2.04014e-19)
(-0.0171397 1.80116 0)
(-0.0271119 1.80967 0)
(1.00223 0.00356523 1.80557e-21)
(1.00377 0.00948104 4.19232e-19)
(-0.00844528 1.81663 -5.96134e-21)
(-0.00690606 1.81567 0)
(0.0405984 3.18518 1.15388e-19)
(0.399259 3.5046 0)
(1.10479 0.644433 5.8376e-20)
(1.0119 0.0122863 -2.30454e-21)
(1.0212 -0.0103222 0)
(1.00169 0.000127883 -1.74989e-23)
(-0.0435383 1.11085 0)
(-0.0198161 2.64211 0)
(-0.0890331 1.66444 0)
(-0.0653823 1.99048 7.41516e-20)
(-0.0525717 1.89338 4.10368e-20)
(1.00442 0.00988403 2.07713e-21)
(1.04492 0.0161571 0)
(1.06982 0.0284921 0)
(-0.0183589 1.80068 0)
(-0.00977386 1.83111 0)
(-0.0261396 1.79124 0)
(0.32294 1.37804 -4.69336e-19)
(1.0112 -0.00960046 0)
(1.00944 -0.015625 0)
(1.00227 0.000459827 2.57523e-19)
(1.00559 -0.00486538 -3.07474e-19)
(1.00116 -0.00103695 0)
(-0.0206534 1.79766 0)
(-0.0189401 1.79658 0)
(-0.018301 1.79834 0)
(-0.0264945 1.79221 0)
(-0.0247569 1.79112 0)
(-0.0274544 1.7932 0)
(1.02627 -0.0131727 0)
(1.02072 0.0194219 -8.38934e-22)
(0.792948 1.26619 5.20048e-19)
(1.00308 0.000261442 -2.60876e-19)
(1.00321 0.00576596 3.11895e-19)
(1.00125 0.00210076 0)
(1.01239 0.0105718 2.53439e-19)
(1.00783 0.00815876 -3.14234e-19)
(1.00881 0.014262 0)
(-0.0101256 1.83096 0)
(-0.00956886 1.82469 9.84847e-21)
(-0.00841644 1.82343 -6.89502e-21)
(1.18345 0.250574 -4.65073e-20)
(1.12295 0.0848269 0)
(0.0566651 3.07855 -5.27188e-19)
(0.0692243 2.85093 -4.23727e-20)
(0.148781 3.19938 8.10052e-19)
(0.142823 3.22809 -3.89136e-21)
(0.140888 3.24565 0)
(0.0226109 3.13885 1.14532e-19)
(0.0820226 3.16332 5.14654e-19)
(0.0749277 3.19078 -2.21368e-19)
(0.0265659 3.12859 0)
(0.686361 0.32602 0)
(0.62635 0.386213 0)
(1.08139 0.673954 -2.29652e-19)
(1.07654 0.809919 -8.27373e-20)
(1.14173 0.561213 0)
(1.1739 0.510991 0)
(1.0155 0.013038 -4.68755e-19)
(1.01358 0.0141873 -1.26052e-21)
(1.02476 -0.0101025 0)
(1.02063 -0.0165256 0)
(1.00664 0.00305028 0)
(1.0102 0.0040282 0)
(1.0045 0.00188343 0)
(1.00952 0.00616361 0)
(1.00779 0.0054408 0)
(1.00532 0.00501741 0)
(-0.0781608 1.13229 0)
(-0.11027 1.10739 0)
(0.0753275 1.11417 0)
(0.118035 1.15679 0)
(0.00984804 2.67213 0)
(0.101314 2.69408 -2.11205e-19)
(-0.0973708 2.63443 0)
(-0.116535 2.55767 1.88184e-20)
(-0.0788915 2.22281 -9.132e-20)
(-0.073363 1.67693 0)
(-0.0509119 1.70124 0)
(-0.1137 1.62276 0)
(-0.10007 1.55222 0)
(-0.184079 1.90424 -1.97072e-20)
(-0.0650243 1.91931 4.14111e-20)
(-0.0631256 1.98493 5.13034e-20)
(-0.0520632 1.95638 0)
(-0.0505069 1.89174 -9.09666e-20)
(-0.0339104 1.87408 -3.88396e-20)
(-0.16349 1.88193 1.53241e-20)
(-0.100515 1.88663 -5.51854e-20)
(-0.102751 1.93848 -6.80742e-20)
(1.01234 0.0189801 4.65649e-19)
(1.01195 0.00385065 4.80534e-21)
(1.00615 0.0199813 -4.85025e-19)
(0.992714 0.0134011 6.11824e-19)
(1.0446 0.0192333 0)
(1.0348 0.00665823 0)
(1.06524 0.0385479 0)
(1.05238 0.023898 0)
(1.05438 0.0129393 0)
(1.10637 0.0776385 0)
(1.08085 0.0486358 0)
(1.08824 0.0374439 0)
(-0.0118147 1.81866 -1.248e-21)
(-0.0187016 1.80792 0)
(-0.0141178 1.81126 0)
(-0.00993037 1.83736 1.25481e-20)
(-0.00838271 1.8384 -5.2206e-22)
(-0.0242187 1.80418 1.04637e-20)
(-0.0250629 1.80088 -1.06096e-20)
(-0.0275165 1.79835 0)
(-0.0262306 1.79918 0)
(-0.0258542 1.79911 0)
(-0.0261629 1.78943 0)
(-0.0212449 1.77504 0)
(0.426797 1.437 8.76294e-19)
(0.398719 1.44967 3.23914e-19)
(0.634945 2.40034 -1.63343e-19)
(0.409693 2.54622 4.60732e-19)
(0.461129 2.04582 -5.2032e-20)
(1.02131 -0.00805522 0)
(1.01538 -0.00953399 0)
(1.01595 -0.0151255 0)
(1.00752 -0.000747432 0)
(1.00451 -0.00135832 0)
(1.00735 -0.00471544 0)
(1.00965 -0.00392734 0)
(1.01399 -0.00427776 0)
(1.02248 0.0179326 4.5107e-19)
(1.01625 0.0197927 -5.72457e-19)
(1.02275 0.0194808 -4.51284e-19)
(1.01885 0.0165763 5.63796e-19)
(0.764817 1.30737 0)
(0.693285 1.36296 6.18317e-19)
(0.862674 1.19996 3.54775e-19)
(0.903172 1.16686 -4.71741e-19)
(1.14705 2.61112 -5.10551e-19)
(0.83443 0.110101 3.00083e-19)
(1.12371 0.0969983 0)
(1.16824 0.170764 4.27823e-20)
(1.15986 0.154951 1.90936e-21)
(0.974361 0.123298 0)
(0.152856 2.97014 1.22453e-19)
(0.128857 2.87602 -6.69238e-19)
(0.0429225 2.34843 4.90055e-19)
(0.109866 0.117916 -2.04052e-19)
(0.343245 3.43223 -4.42479e-19)
(0.198884 3.32435 0)
(0.239517 3.36969 5.7625e-19)
(0.256456 3.04406 -7.26899e-19)
(0.351692 3.20258 0)
(0.00673246 3.1208 2.68297e-20)
(0.0173541 3.12977 -3.43713e-19)
(0.0153886 3.12556 5.05894e-19)
(0.0384734 3.14041 0)
(0.0373443 3.15202 0)
(1.20971 2.61273 0)
(0.500582 0.845075 -2.34056e-19)
(1.01505 0.989297 -1.94883e-19)
(0.957334 1.04582 0)
(0.796419 0.952455 4.96896e-20)
(1.03463 0.867893 3.11508e-20)
(0.404441 0.482679 -5.48373e-19)
(0.71456 0.33189 -2.32254e-20)
(0.698648 0.288208 2.27691e-19)
(0.628683 0.422026 1.82679e-20)
(0.571644 0.411293 -7.51023e-19)
(0.69852 0.349574 0)
(0.722362 0.41978 3.80879e-19)
(0.722829 0.413592 0)
(0.671048 0.391729 0)
(0.659528 0.326039 0)
(0.739495 0.595572 1.42237e-19)
(1.18236 0.268482 -5.47178e-20)
(1.18093 0.404684 0)
(1.18914 0.359252 0)
(0.760675 0.219942 3.41453e-19)
(0.791943 0.513783 -1.91164e-19)
(0.716411 0.497312 -3.11316e-19)
(0.908772 0.400887 -2.96224e-19)
(1.02014 0.0150903 3.08021e-19)
(1.01739 0.0141922 -3.17478e-19)
(1.01365 0.0163986 0)
(1.02648 -0.0147499 0)
(1.02519 -0.0154236 -2.84424e-19)
(1.01986 -0.02085 2.81378e-19)
(1.03259 0.0060523 0)
(1.02645 0.0169006 0)
(1.01121 0.004489 0)
(1.01496 0.00842129 0)
(1.0159 0.00408054 0)
(1.0134 0.00170873 0)
(-0.175899 1.22853 0)
(-0.173171 1.25111 0)
(0.101791 1.02627 4.78779e-19)
(0.309001 1.35512 2.82206e-19)
(0.218859 1.20519 6.23171e-19)
(0.230927 1.265 -3.30427e-19)
(0.30046 1.17248 0)
(0.14842 1.89102 6.86009e-19)
(-0.00662164 1.77729 0)
(0.485406 2.13842 7.75493e-20)
(0.403671 2.42529 2.22919e-19)
(0.408112 1.50172 -5.97387e-19)
(0.418401 1.28428 2.57903e-19)
(0.356762 1.16546 2.06314e-19)
(0.488672 1.30663 4.68332e-19)
(0.463075 1.72891 -4.64133e-19)
(0.486475 1.71755 -3.52087e-19)
(-0.313963 2.18388 5.18974e-20)
(-0.128734 2.34141 0)
(-0.267244 2.37661 -1.60757e-19)
(-0.289732 2.29514 0)
(-0.126381 2.51801 -2.19447e-20)
(-0.0988516 2.39518 0)
(-0.178775 1.75686 5.99118e-21)
(-0.24267 1.82621 0)
(-0.217222 1.65637 0)
(-0.183699 1.67874 -6.75887e-21)
(-0.0861914 2.05072 -3.73395e-20)
(-0.0738243 2.19237 9.77167e-20)
(-0.0522914 2.0981 6.06329e-22)
(-0.0992529 1.83649 2.33232e-20)
(-0.122438 1.82853 -8.49584e-21)
(-0.0397564 1.72685 0)
(-0.0259433 1.7385 0)
(-0.335914 1.91996 -6.8251e-20)
(-0.291156 1.69213 -9.08512e-20)
(-0.273025 1.82147 1.06309e-19)
(-0.383407 1.87438 0)
(-0.0201889 1.82618 -4.59253e-20)
(-0.0195487 1.83704 2.1604e-20)
(-0.02185 1.83965 -6.65754e-21)
(-0.079381 1.82455 -2.82482e-20)
(-0.0462312 1.8623 -1.11363e-20)
(-0.0570581 1.87059 6.30257e-20)
(1.02255 0.013538 -3.02545e-19)
(1.02082 0.00990686 3.06934e-19)
(1.01702 0.00474595 0)
(1.00047 0.0448115 4.4076e-19)
(0.993474 0.033107 -5.10251e-19)
(0.967669 0.0237749 5.91488e-19)
(0.9975 0.0795486 -5.75664e-20)
(1.02759 -0.00814252 0)
(1.0337 0.0081231 2.55398e-19)
(1.02638 -0.00592258 -2.5367e-19)
(1.04446 0.0392441 -1.42689e-20)
(1.0476 0.0286639 1.26636e-19)
(1.04194 0.0491105 0)
(1.03446 0.0409431 -4.71671e-20)
(1.02887 0.0272524 0)
(1.02495 0.0200514 0)
(1.03661 0.00857264 0)
(1.03262 0.0105938 0)
(1.03625 0.0255803 9.79374e-20)
(1.0389 0.0186467 -2.18593e-19)
(1.03735 0.030394 -9.93143e-20)
(1.03588 0.0297667 -1.14762e-19)
(1.03872 0.0567281 2.08428e-19)
(1.06801 0.0521131 0)
(1.06577 0.0938292 0)
(-0.0202378 1.82631 -1.63466e-20)
(-0.0197633 1.81274 -1.40291e-21)
(-0.0212815 1.81407 0)
(-0.0139555 1.82693 1.73957e-20)
(-0.0130787 1.82088 2.60346e-21)
(-0.0131039 1.82524 -2.62867e-21)
(-0.0291156 1.86872 3.2593e-20)
(-0.0235912 1.84907 -2.4881e-21)
(-0.0332606 1.85352 1.35946e-20)
(-0.0109136 1.84933 -1.72842e-20)
(-0.0154102 1.85227 -2.551e-21)
(-0.0280492 1.8044 2.39823e-22)
(-0.0268462 1.80803 1.96744e-20)
(0.47684 1.38428 -4.24883e-19)
(0.474503 1.40116 -3.99956e-19)
(0.651424 1.39866 -5.97282e-19)
(0.513822 1.45727 -3.21691e-19)
(0.544921 1.43965 0)
(0.601783 2.38233 1.39809e-19)
(0.697795 2.34467 2.44573e-19)
(0.420562 2.51864 1.06509e-19)
(0.448746 2.58104 -1.41786e-19)
(0.564952 2.51701 3.19621e-19)
(0.530453 2.44368 0)
(0.542905 2.44862 -3.81125e-19)
(0.208989 2.64959 6.1208e-19)
(0.371556 2.5935 -4.84581e-20)
(0.247086 2.67866 -9.71843e-19)
(0.91458 2.36618 2.06547e-19)
(0.821955 2.34285 0)
(1.01078 -3.26587e-05 1.03213e-20)
(1.0151 -0.00508852 -8.27773e-21)
(1.01629 -0.00367492 -1.49741e-19)
(1.01464 -0.000960939 1.52324e-19)
(1.01291 0.000978479 0)
(0.637278 1.25434 0)
(0.641483 1.15361 0)
(0.735551 1.08973 0)
(0.63275 1.11691 0)
(1.17696 2.62957 5.42153e-20)
(1.05861 2.3618 0)
(0.855251 2.26506 -1.99937e-21)
(0.810765 2.49483 0)
(0.906654 2.5852 1.82436e-20)
(0.946642 2.54007 0)
(0.83952 0.13706 0)
(0.811059 0.143395 8.60413e-20)
(0.920606 0.12682 4.42056e-19)
(0.862562 0.12007 -1.77422e-19)
(0.856438 0.0727594 -5.32754e-19)
(1.02549 0.20882 -2.65608e-19)
(0.956103 0.278823 -1.52659e-20)
(0.883876 0.27544 4.03064e-19)
(0.961649 0.202527 3.0222e-19)
(0.93306 0.159096 -5.56683e-19)
(0.908199 0.174563 7.18612e-20)
(0.925186 0.238082 -1.42149e-19)
(0.90539 0.192631 0)
(0.968137 0.159869 -2.66708e-19)
(1.00135 0.158717 0)
(1.00062 0.188152 0)
(1.06149 0.103367 8.9368e-20)
(1.02247 0.148076 -1.37206e-20)
(1.01841 0.211453 -1.36957e-19)
(1.0515 0.180457 0)
(1.01698 0.0247449 2.3241e-19)
(1.03021 0.0432424 2.76158e-19)
(1.02576 0.0294446 -2.30789e-19)
(1.02328 0.047666 -1.85717e-19)
(1.00597 0.0495676 -3.10065e-19)
(0.976465 0.124834 0)
(0.983298 0.0765933 0)
(0.970677 0.0467052 -2.13768e-19)
(0.933919 0.0564808 8.93745e-20)
(1.00534 0.0798428 2.63088e-19)
(1.02572 0.104136 -2.71231e-19)
(1.03074 0.124949 2.46341e-19)
(0.992498 0.122975 0)
(1.03635 0.0929591 0)
(1.02294 0.0789611 -1.13319e-19)
(1.02063 0.0799783 -2.10945e-19)
(0.588886 1.07047 -8.68358e-20)
(0.63257 1.42192 1.87096e-19)
(1.15643 2.75724 8.58862e-20)
(1.21821 3.09545 -6.87991e-20)
(1.24184 2.73002 5.30109e-19)
(1.27393 2.71317 -3.26908e-19)
(1.19883 2.34532 -7.63078e-21)
(1.20475 2.9978 1.82796e-19)
(1.22367 2.96268 -1.9582e-19)
(1.20948 3.24887 -2.64729e-19)
(1.3729 2.97722 3.66558e-19)
(1.36532 2.89426 0)
(0.500233 0.852147 -1.32786e-20)
(0.163862 1.29718 3.67509e-19)
(0.523648 0.546646 3.63085e-19)
(0.355039 0.318145 3.95649e-19)
(0.569512 0.441783 4.19225e-19)
(0.549478 0.504973 -6.66011e-19)
(0.546078 0.525442 5.45984e-19)
(0.519821 0.479896 -2.18008e-19)
(0.485027 0.422106 5.0391e-19)
(0.768285 0.265797 5.84432e-19)
(0.736984 0.29469 0)
(0.728048 0.247308 1.0941e-20)
(0.711247 0.512787 1.96757e-19)
(0.694077 0.478858 -7.238e-19)
(0.619109 0.506308 2.0124e-20)
(0.640309 0.476683 0)
(0.626359 0.738123 1.55547e-19)
(0.776709 0.758603 6.35352e-20)
(0.71135 0.84716 -8.28498e-20)
(0.822638 0.79028 -2.25179e-20)
(0.864092 0.833301 1.20688e-20)
(0.872174 0.835445 -1.23579e-20)
(0.782533 0.628394 -2.41604e-19)
(0.866603 0.686462 2.09341e-20)
(0.930878 0.698273 0)
(0.919492 0.672633 -2.30241e-20)
(0.981285 0.313243 6.72606e-20)
(1.08004 0.277678 1.72924e-20)
(1.01063 0.251655 1.0855e-19)
(0.965048 0.342655 -1.52534e-19)
(1.00338 0.401226 0)
(1.05136 0.397032 0)
(0.88396 0.335978 3.20599e-21)
(0.822863 0.278762 0)
(0.833262 0.276605 2.05413e-19)
(0.880858 0.281594 -8.08801e-21)
(0.89957 0.401217 8.10269e-19)
(0.848554 0.458091 2.07834e-19)
(0.860513 0.424528 -2.57995e-19)
(0.805226 0.413429 -2.76153e-19)
(0.791763 0.407805 1.87469e-19)
(0.780624 0.399913 -1.84052e-19)
(1.0258 -0.0113083 2.46465e-19)
(1.02064 -0.00562295 0)
(1.01839 -0.00359445 1.61985e-19)
(1.02391 -0.00729781 -2.5231e-21)
(1.02591 -0.000149325 1.77205e-19)
(1.02217 0.0112042 -3.7451e-19)
(1.02338 0.0127744 0)
(1.02217 0.0117912 -7.87972e-20)
(1.01683 0.00609436 1.95367e-19)
(1.01616 0.00969567 -9.97269e-20)
(1.01904 0.00938861 7.38961e-20)
(-0.161619 1.51247 0)
(-0.254214 1.61562 0)
(-0.200028 1.36983 0)
(-0.13889 1.4096 0)
(-0.31897 1.49923 -7.50511e-19)
(-0.199887 1.31599 2.43938e-19)
(-0.158631 1.78424 2.48057e-19)
(-0.18739 1.52306 -2.59797e-19)
(-0.337629 1.68814 1.62547e-19)
(-0.347716 1.6719 -1.25003e-19)
(-0.311709 1.46975 1.03882e-19)
(-0.30484 1.47723 -3.70191e-19)
(-0.278089 1.50099 3.12202e-20)
(-0.295984 1.58073 -1.81864e-20)
(-0.25732 2.42558 1.7665e-19)
(-0.18573 2.52607 0)
(-0.147445 2.3377 -7.73639e-20)
(-0.224032 1.94367 -1.65038e-19)
(0.406077 2.1779 9.58504e-20)
(0.232115 2.58492 0)
(0.246585 2.51353 -8.73588e-20)
(0.407787 2.48524 6.0772e-20)
(0.219282 2.24448 3.39362e-19)
(0.0703628 2.33905 -1.31716e-19)
(0.00630331 2.59546 0)
(-0.287764 2.0025 4.69525e-20)
(-0.190936 2.00588 -8.59037e-20)
(-0.221089 1.95454 0)
(-0.211046 2.13188 -3.14677e-21)
(-0.299654 2.13204 -1.54659e-20)
(-0.114656 1.74543 2.81163e-21)
(-0.0761704 1.75533 -3.54134e-20)
(-0.07208 1.77552 9.70626e-21)
(-0.115655 1.77837 1.21216e-20)
(-0.154919 1.76971 0)
(-0.0576097 1.77665 0)
(-0.0247703 1.77579 1.90272e-20)
(-0.0350058 1.78975 -5.9058e-21)
(-0.0418039 1.78312 0)
(-0.0265476 1.75859 1.3736e-20)
(-0.0193758 1.75937 -2.79544e-20)
(1.03439 0.0119415 0)
(1.04035 0.0143491 -2.43204e-20)
(1.04218 0.0193309 -1.74082e-19)
(1.04037 0.0203459 0)
(1.0402 0.0218046 0)
(1.04379 0.00885577 -5.85614e-21)
(1.0408 0.00720843 2.94047e-19)
(1.04025 0.0113249 3.51753e-19)
(1.03405 0.0119655 0)
(1.02945 0.00895361 0)
(1.03781 0.0173006 1.77708e-19)
(1.02871 0.0111786 0)
(1.02942 0.00986572 0)
(-0.0344329 1.82979 0)
(-0.0296863 1.80811 2.53581e-21)
(-0.0288409 1.82275 1.11919e-20)
(-0.0308446 1.79367 0)
(-0.0324232 1.80804 1.20637e-20)
(-0.0298696 1.80369 -6.61237e-21)
(-0.0317083 1.79794 0)
(0.366479 1.69693 0)
(0.440288 1.3598 6.1747e-19)
(0.409959 1.37905 0)
(0.451659 1.35415 -4.5867e-19)
(0.494882 1.41197 0)
(0.484713 1.40645 3.84592e-19)
(1.02079 2.71462 -3.90298e-21)
(0.934491 2.40881 -2.74164e-19)
(0.867414 2.14324 3.28342e-19)
(0.830849 2.33966 1.18813e-19)
(0.831342 2.5244 0)
(0.895776 2.52521 0)
(0.897598 2.35581 0)
(0.880169 2.32253 -4.40475e-19)
(0.683221 2.49345 -6.10313e-20)
(0.791986 2.50219 -2.24861e-20)
(0.79211 2.47153 1.74164e-20)
(0.686508 2.33889 0)
(0.786415 2.33765 0)
(0.7512 2.34311 -2.3003e-19)
(0.746665 2.49083 0)
(0.592132 1.08018 0)
(0.468925 0.924693 -1.81911e-20)
(0.516578 0.956921 -2.24344e-21)
(0.51227 1.05097 0)
(0.503877 1.00476 3.11303e-20)
(0.732749 0.874509 1.11003e-20)
(0.761508 1.00827 0)
(0.730205 0.965795 -5.6394e-20)
(0.595992 1.02207 0)
(0.609055 0.937943 0)
(1.15911 2.77649 4.40191e-20)
(1.13925 2.84134 1.17226e-19)
(0.946755 2.37281 -2.69194e-19)
(0.916847 2.34431 2.9741e-20)
(1.12205 2.74971 0)
(1.07049 2.72304 -4.12926e-20)
(1.07426 2.49056 -8.22901e-20)
(0.962993 2.22026 -2.97714e-20)
(0.493584 1.38002 0)
(0.501162 1.05151 7.65364e-20)
(0.558095 1.12987 0)
(0.852455 0.213856 0)
(0.815995 0.159104 0)
(0.776107 0.172525 0)
(0.83578 0.226228 -3.22843e-19)
(0.784636 0.231129 2.00291e-19)
(0.9369 0.0527936 -1.82595e-19)
(0.942742 0.10011 0)
(0.925661 0.10776 8.28403e-20)
(0.889997 0.0813741 3.39467e-19)
(0.884869 0.051609 -2.09109e-19)
(1.16076 3.37451 -9.77219e-19)
(1.20594 3.2944 0)
(1.16222 3.40179 -1.93758e-18)
(0.649099 3.56379 1.66014e-18)
(0.872597 3.131 3.8535e-19)
(0.483576 0.874265 2.18157e-19)
(0.414519 0.861636 0)
(0.348318 0.561741 -8.26996e-20)
(0.41479 0.691459 -3.7915e-19)
(0.521604 0.540776 -1.13763e-19)
(0.503854 0.565606 1.2778e-19)
(0.630215 0.555589 2.74473e-19)
(0.651359 0.558785 0)
(0.602624 0.63374 0)
(0.565183 0.570507 0)
(0.916736 0.578018 -4.63979e-20)
(0.847997 0.512378 -2.01136e-19)
(0.868788 0.547466 1.02529e-19)
(0.914044 0.483094 -1.46497e-19)
(1.00598 0.465511 0)
(1.0266 0.542434 -1.00331e-20)
(0.835951 0.368162 -4.10235e-19)
(0.837793 0.354354 6.19318e-19)
(0.802033 0.367578 3.22677e-19)
(0.780318 0.34611 -3.63651e-19)
(0.825983 0.300095 -2.70832e-19)
(0.783912 0.302267 3.32961e-19)
(1.03185 -0.000284123 -1.87412e-19)
(1.03424 -0.00124764 3.82578e-19)
(1.02833 -0.0104296 2.34362e-19)
(1.03261 -0.0109212 -2.81769e-19)
(1.03756 0.00328948 0)
(1.0375 0.0052746 -4.62347e-19)
(-0.417047 1.95967 3.81406e-22)
(-0.38118 1.85663 0)
(-0.385877 1.94857 -6.52252e-19)
(-0.327469 1.93146 6.28296e-19)
(-0.292098 1.77328 -4.65455e-19)
(-0.377109 1.80834 0)
(-0.0701837 1.82407 0)
(-0.0545355 1.7944 -6.44155e-21)
(-0.0420912 1.79624 5.85427e-21)
(-0.0384079 1.80739 2.90888e-21)
(-0.0472265 1.83064 -1.30455e-20)
(-0.0535068 1.83045 -2.29288e-20)
(0.477092 1.40798 3.68366e-19)
(0.440115 1.41336 4.26104e-19)
(0.452014 1.32163 4.13831e-19)
(0.408103 1.34881 -2.16251e-20)
(0.629176 1.28573 0)
(0.548271 1.39284 5.27396e-19)
(0.580329 1.35849 -5.1252e-19)
(0.471771 1.29308 -3.94256e-19)
(0.49665 1.24021 0)
(0.548454 1.17327 0)
(0.647099 2.4513 8.84076e-20)
(0.672991 2.45597 6.33201e-19)
(0.707741 2.46819 -4.29058e-19)
(0.649279 2.44525 -1.28131e-19)
(0.586927 2.56852 1.35845e-19)
(0.577482 2.54382 -3.83493e-19)
(0.949315 2.37045 -1.77349e-19)
(0.994838 2.39401 0)
(0.884563 2.12984 -2.45376e-19)
(1.03961 2.70662 0)
(1.0388 2.69754 0)
(0.613103 2.30145 2.38344e-19)
(1.04036 3.1794 4.77294e-19)
(0.912073 3.05169 -4.28702e-19)
(0.294256 0.980402 0)
(0.342377 0.847299 -1.48194e-19)
(0.477899 0.790363 -5.06431e-19)
(0.404827 2.06229 0)
(0.475012 2.80061 -2.68423e-19)
(0.433434 2.56843 0)
(0.634154 0.686299 -3.2274e-19)
(0.710231 0.666624 4.19215e-19)
(0.731152 0.610745 2.93603e-19)
(0.617823 0.647958 4.7932e-20)
(0.677235 0.605642 -1.96861e-19)
(0.999039 2.78997 -3.62836e-19)
(1.03661 2.8426 2.73239e-19)
(0.646592 2.19695 6.99913e-20)
(0.594296 1.73953 -8.09984e-20)
(0.700539 1.92393 7.45085e-20)
(0.983519 2.47523 -7.6218e-20)
(0.988093 2.46418 -1.39874e-19)
(0.660706 1.88181 -3.87571e-21)
(0.446149 1.34884 -7.16894e-20)
)
;

boundaryField
{
    wall-4
    {
        type            noSlip;
    }
    velocity-inlet-5
    {
        type            fixedValue;
        value           uniform (1 0 0);
    }
    velocity-inlet-6
    {
        type            fixedValue;
        value           uniform (0 3 0);
    }
    pressure-outlet-7
    {
        type            zeroGradient;
    }
    wall-8
    {
        type            noSlip;
    }
    frontAndBackPlanes
    {
        type            empty;
    }
}


// ************************************************************************* //
