/*--------------------------------*- C++ -*----------------------------------*\
| =========                 |                                                 |
| \\      /  F ield         | OpenFOAM: The Open Source CFD Toolbox           |
|  \\    /   O peration     | Version:  2412                                  |
|   \\  /    A nd           | Website:  www.openfoam.com                      |
|    \\/     M anipulation  |                                                 |
\*---------------------------------------------------------------------------*/
FoamFile
{
    version     2.0;
    format      ascii;
    arch        "LSB;label=32;scalar=64";
    class       volVectorField;
    location    "5";
    object      U;
}
// * * * * * * * * * * * * * * * * * * * * * * * * * * * * * * * * * * * * * //

dimensions      [0 1 -1 0 0 0 0];

internalField   nonuniform List<vector> 
38
(
(0.000221566 1.64513 0)
(-0.00462829 1.69587 -1.29681e-21)
(-0.00257745 1.6479 0)
(0.00119905 1.70235 -6.04391e-20)
(-0.00707021 1.65498 1.17689e-19)
(-0.00479265 1.69487 -6.20498e-21)
(0.00554278 1.69813 -1.57842e-21)
(0.00643646 1.79034 0)
(0.00483591 1.7655 8.7248e-20)
(0.0126321 1.75926 4.44564e-20)
(0.0086999 1.79059 0)
(0.0066628 1.79333 0)
(-0.00187443 1.758 -5.07553e-20)
(0.00692716 1.76489 6.42236e-20)
(0.00187121 1.77067 7.83074e-20)
(0.00802559 1.76911 0)
(-0.00173748 1.75606 3.94426e-20)
(0.000777651 1.75723 -8.451e-20)
(-0.00120439 1.76392 -9.63989e-20)
(0.0025863 1.76561 -3.72148e-20)
(0.00488997 1.7601 0)
(0.0079733 1.7686 0)
(0.00892848 1.765 4.15089e-20)
(0.00602315 1.76651 -1.77451e-21)
(0.0144557 1.77127 1.29243e-21)
(-0.00503295 1.75536 3.02955e-20)
(-0.00638323 1.75342 2.14703e-20)
(0.0120763 1.75313 1.08556e-19)
(0.0189063 1.76092 8.45194e-20)
(0.0119853 1.75201 -1.13722e-19)
(0.0239212 1.76656 0)
(0.00869928 1.77176 0)
(0.0204151 1.76588 -7.21044e-20)
(0.0186936 1.76741 5.32739e-20)
(0.00967189 1.77478 -7.67929e-21)
(0.00693657 1.78068 6.91263e-21)
(-0.00405044 1.76606 -4.13284e-20)
(0.00288607 1.76462 0)
)
;

boundaryField
{
    wall-4
    {
        type            noSlip;
    }
    velocity-inlet-5
    {
        type            fixedValue;
        value           nonuniform List<vector> 0();
    }
    velocity-inlet-6
    {
        type            fixedValue;
        value           nonuniform List<vector> 0();
    }
    pressure-outlet-7
    {
        type            zeroGradient;
    }
    wall-8
    {
        type            noSlip;
    }
    frontAndBackPlanes
    {
        type            empty;
    }
    procBoundary13to12
    {
        type            processor;
        value           nonuniform List<vector> 5((0.00224884 1.713 0) (0.00461598 1.81142 0) (0.00676162 1.81724 0) (0.0293354 1.77568 -2.16542e-20) (0.0159104 1.78609 -2.09234e-21));
    }
    procBoundary13to14
    {
        type            processor;
        value           nonuniform List<vector> 6((0.0143165 1.63128 0) (0.00526005 1.75283 0) (0.00296478 1.75424 1.01975e-19) (0.0286311 1.77038 1.92572e-19) (0.0161535 1.75245 -5.53483e-21) (0.0467963 1.76944 0));
    }
    procBoundary13to15
    {
        type            processor;
        value           nonuniform List<vector> 3((0.00162077 1.78861 0) (0.00746289 1.78651 -9.1863e-20) (0.00340702 1.78466 2.60433e-20));
    }
    procBoundary13to17
    {
        type            processor;
        value           nonuniform List<vector> 3((0.0059375 1.65596 9.47707e-20) (0.0133186 1.77069 1.38975e-20) (-0.00472586 1.75423 3.66716e-20));
    }
}


// ************************************************************************* //
