/*--------------------------------*- C++ -*----------------------------------*\
| =========                 |                                                 |
| \\      /  F ield         | OpenFOAM: The Open Source CFD Toolbox           |
|  \\    /   O peration     | Version:  2412                                  |
|   \\  /    A nd           | Website:  www.openfoam.com                      |
|    \\/     M anipulation  |                                                 |
\*---------------------------------------------------------------------------*/
FoamFile
{
    version     2.0;
    format      ascii;
    arch        "LSB;label=32;scalar=64";
    class       volVectorField;
    location    "2";
    object      U;
}
// * * * * * * * * * * * * * * * * * * * * * * * * * * * * * * * * * * * * * //

dimensions      [0 1 -1 0 0 0 0];

internalField   nonuniform List<vector> 
39
(
(0.93077 0.0256135 0)
(0.962735 0.0221171 0)
(0.944848 0.00390311 0)
(0.94377 -0.00552172 0)
(0.938224 -0.0113799 0)
(0.945419 0.0109749 0)
(0.901431 0.0185285 0)
(0.98673 -0.00718867 5.60842e-21)
(0.990454 -0.0134457 1.48322e-18)
(0.992841 0.0127853 -1.55018e-18)
(0.93572 -0.00496754 2.02943e-18)
(0.973196 -0.00900811 1.4129e-18)
(0.923249 0.07936 -1.60829e-18)
(0.927749 0.0636578 1.78005e-18)
(0.965859 0.00123114 -1.79376e-19)
(0.980044 0.0648077 3.4244e-19)
(0.988263 0.0543508 -1.75892e-19)
(1.0001 0.0515743 0)
(0.989013 0.049068 0)
(1.0297 0.0590193 3.51042e-19)
(0.950496 0.000629627 0)
(0.991576 0.0212136 -4.11641e-19)
(1.00602 0.0648475 7.92929e-19)
(1.03643 0.0668701 0)
(1.00271 0.0456569 0)
(1.0038 0.0567415 7.72519e-19)
(0.998463 0.0181171 9.76562e-19)
(1.01275 0.0545101 -7.4087e-19)
(1.00436 0.0647135 -6.66553e-19)
(0.958915 0.0411483 -1.00364e-18)
(0.963929 0.017165 0)
(0.918525 0.0823185 -6.32792e-19)
(1.01244 0.0846735 8.85531e-19)
(1.01149 0.107664 -7.35872e-19)
(0.97236 0.12057 3.1314e-19)
(0.947706 0.140096 0)
(0.976703 0.0842918 0)
(0.977297 0.06817 -4.43795e-19)
(0.991953 0.077201 -7.33473e-19)
)
;

boundaryField
{
    wall-4
    {
        type            noSlip;
    }
    velocity-inlet-5
    {
        type            fixedValue;
        value           nonuniform List<vector> 0();
    }
    velocity-inlet-6
    {
        type            fixedValue;
        value           nonuniform List<vector> 0();
    }
    pressure-outlet-7
    {
        type            zeroGradient;
    }
    wall-8
    {
        type            noSlip;
    }
    frontAndBackPlanes
    {
        type            empty;
    }
    procBoundary11to0
    {
        type            processor;
        value           nonuniform List<vector> 3((0.998582 0.0230525 0) (1.01054 0.0129707 -8.14678e-19) (0.947596 0.00335255 0));
    }
    procBoundary11to3
    {
        type            processor;
        value           nonuniform List<vector> 2((0.960147 0.0180088 0) (1.00501 -0.0345307 -1.78399e-20));
    }
    procBoundary11to9
    {
        type            processor;
        value           nonuniform List<vector> 6((1.07147 0.0501902 0) (1.07457 0.042061 0) (0.97561 0.0263731 -5.76924e-20) (1.00467 0.0310588 4.78501e-19) (1.03858 0.159977 3.93985e-19) (0.962828 0.199687 -4.41623e-21));
    }
    procBoundary11to10
    {
        type            processor;
        value           nonuniform List<vector> 4((0.897486 0.0497167 0) (0.954806 0.154047 0) (0.948215 0.139619 0) (0.905449 0.0441374 2.38597e-19));
    }
}


// ************************************************************************* //
