/*--------------------------------*- C++ -*----------------------------------*\
| =========                 |                                                 |
| \\      /  F ield         | OpenFOAM: The Open Source CFD Toolbox           |
|  \\    /   O peration     | Version:  2412                                  |
|   \\  /    A nd           | Website:  www.openfoam.com                      |
|    \\/     M anipulation  |                                                 |
\*---------------------------------------------------------------------------*/
FoamFile
{
    version     2.0;
    format      ascii;
    arch        "LSB;label=32;scalar=64";
    class       volVectorField;
    location    "4";
    object      U;
}
// * * * * * * * * * * * * * * * * * * * * * * * * * * * * * * * * * * * * * //

dimensions      [0 1 -1 0 0 0 0];

internalField   nonuniform List<vector> 
38
(
(-0.0183123 2.82016 0)
(0.0392693 2.63449 0)
(0.952535 -0.00510423 0)
(0.00565977 2.93655 1.46881e-24)
(-0.00966287 2.83679 0)
(0.012347 2.92929 0)
(-0.0274707 2.78657 0)
(-0.0412856 2.86105 3.09918e-19)
(0.0330862 2.92941 0)
(0.0623224 2.89921 0)
(-0.00759147 2.73339 0)
(0.980574 -0.00426809 0)
(0.951095 -0.0133461 0)
(-0.00425505 2.98112 4.3861e-19)
(-0.0455648 2.86274 6.13889e-20)
(0.018505 2.99203 -2.87953e-19)
(0.0438715 3.02532 0)
(-0.0256422 2.87356 0)
(0.0196748 3.09908 -1.11092e-18)
(0.02523 3.1066 1.23084e-18)
(-0.017159 2.97322 -4.889e-19)
(0.0667074 3.22068 7.91565e-21)
(1.01165 0.00620561 0)
(0.14252 3.05878 -5.37401e-19)
(0.0838581 2.862 -4.86184e-20)
(0.216404 3.23961 6.59373e-19)
(0.165918 3.28807 7.25491e-20)
(0.0345843 3.13993 9.98637e-20)
(0.113392 3.17636 5.25252e-19)
(0.10369 3.22196 -1.98397e-19)
(0.0645231 3.10122 0)
(0.211817 2.88804 -6.44604e-19)
(0.153551 2.2498 5.44245e-19)
(0.017111 3.10506 2.84192e-20)
(0.0312826 3.12091 -3.56997e-19)
(0.0322296 3.11016 5.25535e-19)
(0.0534356 3.13849 0)
(0.0571342 3.15456 0)
)
;

boundaryField
{
    wall-4
    {
        type            noSlip;
    }
    velocity-inlet-5
    {
        type            fixedValue;
        value           nonuniform List<vector> 0();
    }
    velocity-inlet-6
    {
        type            fixedValue;
        value           nonuniform List<vector> 0();
    }
    pressure-outlet-7
    {
        type            zeroGradient;
    }
    wall-8
    {
        type            noSlip;
    }
    frontAndBackPlanes
    {
        type            empty;
    }
    procBoundary1to0
    {
        type            processor;
        value           nonuniform List<vector> 2((0.984954 -0.000650093 0) (1.01826 0.0133771 0));
    }
    procBoundary1to2
    {
        type            processor;
        value           nonuniform List<vector> 4((0.0195063 3.09666 1.53863e-18) (0.00767507 2.94361 8.54595e-19) (0.0195063 3.09666 1.53863e-18) (-0.0367397 2.87957 -5.60361e-19));
    }
    procBoundary1to4
    {
        type            processor;
        value           nonuniform List<vector> 2((0.979263 0.00575924 0) (1.00313 0.00780092 0));
    }
    procBoundary1to7
    {
        type            processor;
        value           uniform (0.169123 0.276397 -1.81349e-19);
    }
    procBoundary1to20
    {
        type            processor;
        value           nonuniform List<vector> 3((-0.0178878 2.90613 0) (0.172047 3.31124 0) (0.280729 3.07563 -3.84693e-19));
    }
}


// ************************************************************************* //
