/*--------------------------------*- C++ -*----------------------------------*\
| =========                 |                                                 |
| \\      /  F ield         | OpenFOAM: The Open Source CFD Toolbox           |
|  \\    /   O peration     | Version:  2412                                  |
|   \\  /    A nd           | Website:  www.openfoam.com                      |
|    \\/     M anipulation  |                                                 |
\*---------------------------------------------------------------------------*/
FoamFile
{
    version     2.0;
    format      ascii;
    arch        "LSB;label=32;scalar=64";
    class       surfaceScalarField;
    location    "6";
    object      phi;
}
// * * * * * * * * * * * * * * * * * * * * * * * * * * * * * * * * * * * * * //

dimensions      [0 3 -1 0 0 0 0];

oriented        oriented;

internalField   nonuniform List<scalar> 
48
(
5.62643
5.62643
-5.24693
5.24693
6.21854
-6.21854
-8.44032
8.44032
-2.81389
2.81254
0.353493
5.27294
-5.97992
8.79246
-5.27294
0.0260115
5.20884
0.0380812
5.20884
6.15639
0.0621476
6.15639
-6.20038
-0.018157
-6.20038
-11.1329
11.1148
-0.0364367
-11.0965
5.17241
5.17241
-11.1896
0.0931078
-11.1515
-6.10728
-6.10728
2.33304
11.1255
-0.0327669
11.1475
-5.13964
0.0320612
5.13964
-11.2097
11.2417
6.02083
0.135563
11.3773
)
;

boundaryField
{
    wall-4
    {
        type            calculated;
        value           uniform 0;
    }
    velocity-inlet-5
    {
        type            calculated;
        value           nonuniform List<scalar> 0();
    }
    velocity-inlet-6
    {
        type            calculated;
        value           uniform -5.62643;
    }
    pressure-outlet-7
    {
        type            calculated;
        value           nonuniform List<scalar> 0();
    }
    wall-8
    {
        type            calculated;
        value           nonuniform List<scalar> 0();
    }
    frontAndBackPlanes
    {
        type            empty;
    }
    procBoundary2to1
    {
        type            processor;
        value           nonuniform List<scalar> 4(-0.0366979 5.10758 11.414 6.02083);
    }
}


// ************************************************************************* //
