/*--------------------------------*- C++ -*----------------------------------*\
| =========                 |                                                 |
| \\      /  F ield         | OpenFOAM: The Open Source CFD Toolbox           |
|  \\    /   O peration     | Version:  2412                                  |
|   \\  /    A nd           | Website:  www.openfoam.com                      |
|    \\/     M anipulation  |                                                 |
\*---------------------------------------------------------------------------*/
FoamFile
{
    version     2.0;
    format      ascii;
    arch        "LSB;label=32;scalar=64";
    class       volVectorField;
    location    "6";
    object      U;
}
// * * * * * * * * * * * * * * * * * * * * * * * * * * * * * * * * * * * * * //

dimensions      [0 1 -1 0 0 0 0];

internalField   nonuniform List<vector> 
38
(
(0.974351 0.00817 0)
(0.968628 0.0216746 0)
(0.98135 0.0161189 0)
(0.935267 0.0230383 0)
(1.00074 0.000546056 0)
(1.00039 0.00825674 0)
(0.997347 0.0232021 -1.10606e-18)
(0.984443 0.0264992 8.47635e-19)
(0.927697 -0.00731213 0)
(0.999527 0.0010919 0)
(0.99978 0.00110696 0)
(0.917342 0.0014178 0)
(0.960726 0.00384895 0)
(0.960724 0.000700652 0)
(0.917544 -0.00951377 0)
(0.915596 -0.00114757 0)
(0.962542 0.00358432 0)
(0.966248 0.0114784 0)
(0.912464 0.00590951 0)
(0.964809 -0.00529215 0)
(0.968502 -0.00879689 0)
(0.922175 -0.0178288 0)
(0.964497 0.00859207 0)
(0.963812 -0.00118399 0)
(0.920908 -0.00108404 0)
(1.01389 0.00849405 -8.81252e-22)
(1.00541 0.0114223 4.08269e-21)
(1.01394 0.00735454 4.44941e-19)
(1.01799 0.00761179 -5.66713e-19)
(1.01296 0.00679226 -4.34747e-19)
(1.01373 -0.00273884 5.68475e-19)
(1.01347 -0.00430347 -2.9993e-19)
(1.01158 0.00662987 2.93689e-19)
(1.01282 -0.00112173 0)
(1.01581 0.00176091 0)
(1.01739 0.00512952 0)
(1.01625 0.00656318 0)
(1.00693 0.0135949 0)
)
;

boundaryField
{
    wall-4
    {
        type            noSlip;
    }
    velocity-inlet-5
    {
        type            fixedValue;
        value           uniform (1 0 0);
    }
    velocity-inlet-6
    {
        type            fixedValue;
        value           nonuniform List<vector> 0();
    }
    pressure-outlet-7
    {
        type            zeroGradient;
    }
    wall-8
    {
        type            noSlip;
    }
    frontAndBackPlanes
    {
        type            empty;
    }
    procBoundary3to0
    {
        type            processor;
        value           nonuniform List<vector> 2((1.00367 0.0096349 3.53787e-19) (1.00162 0.0145798 0));
    }
    procBoundary3to4
    {
        type            processor;
        value           nonuniform List<vector> 3((0.996628 0.0119251 -4.24464e-19) (1.00302 0.00609734 3.56162e-21) (1.00033 0.00197089 0));
    }
    procBoundary3to5
    {
        type            processor;
        value           nonuniform List<vector> 7((0.989546 0.0186992 0) (1.01876 -0.00267701 5.99435e-19) (1.01098 0.0092556 -1.42298e-21) (1.01952 -0.00488859 0) (1.00766 0.00222055 0) (1.01941 -0.00302284 -3.03837e-19) (1.01392 0.00292485 0));
    }
    procBoundary3to11
    {
        type            processor;
        value           nonuniform List<vector> 2((0.910813 0.00817154 0) (1.00144 0.0212709 4.54137e-19));
    }
}


// ************************************************************************* //
