/*--------------------------------*- C++ -*----------------------------------*\
| =========                 |                                                 |
| \\      /  F ield         | OpenFOAM: The Open Source CFD Toolbox           |
|  \\    /   O peration     | Version:  2412                                  |
|   \\  /    A nd           | Website:  www.openfoam.com                      |
|    \\/     M anipulation  |                                                 |
\*---------------------------------------------------------------------------*/
FoamFile
{
    version     2.0;
    format      ascii;
    arch        "LSB;label=32;scalar=64";
    class       surfaceScalarField;
    location    "6";
    object      phi;
}
// * * * * * * * * * * * * * * * * * * * * * * * * * * * * * * * * * * * * * //

dimensions      [0 3 -1 0 0 0 0];

oriented        oriented;

internalField   nonuniform List<scalar> 
51
(
2.31523
2.73677
-0.421541
2.73677
-3.41864
-0.226512
-3.41864
3.05547
-0.318692
3.05547
-3.27248
-0.146157
3.27248
-0.217018
-5.68199
-5.50009
-4.95985
-3.95718
-1.72481
-4.10334
-4.89185
4.57315
-8.2507
8.47771
-0.227006
4.17602
5.54196
-1.11934
-4.42262
-1.66017
-3.23167
-5.08086
3.42069
-0.904841
3.65321
-6.12393
5.00459
-2.35377
5.77446
-3.54071
-0.562632
3.75773
0.815426
6.58989
6.94349
-0.465861
5.47045
-6.12403
5.56139
3.83659
0.510598
)
;

boundaryField
{
    wall-4
    {
        type            calculated;
        value           nonuniform List<scalar> 0();
    }
    velocity-inlet-5
    {
        type            calculated;
        value           nonuniform List<scalar> 0();
    }
    velocity-inlet-6
    {
        type            calculated;
        value           nonuniform List<scalar> 0();
    }
    pressure-outlet-7
    {
        type            calculated;
        value           nonuniform List<scalar> 0();
    }
    wall-8
    {
        type            calculated;
        value           uniform 0;
    }
    frontAndBackPlanes
    {
        type            empty;
    }
    procBoundary23to18
    {
        type            processor;
        value           nonuniform List<scalar> 3(-2.31523 -4.55805 -12.4267);
    }
    procBoundary23to21
    {
        type            processor;
        value           nonuniform List<scalar> 3(0.0418686 -7.1705 2.52087);
    }
    procBoundary23to22
    {
        type            processor;
        value           nonuniform List<scalar> 4(3.64515 5.45548 10.4599 4.34718);
    }
}


// ************************************************************************* //
