/*--------------------------------*- C++ -*----------------------------------*\
| =========                 |                                                 |
| \\      /  F ield         | OpenFOAM: The Open Source CFD Toolbox           |
|  \\    /   O peration     | Version:  2412                                  |
|   \\  /    A nd           | Website:  www.openfoam.com                      |
|    \\/     M anipulation  |                                                 |
\*---------------------------------------------------------------------------*/
FoamFile
{
    version     2.0;
    format      ascii;
    arch        "LSB;label=32;scalar=64";
    class       volVectorField;
    location    "6";
    object      U;
}
// * * * * * * * * * * * * * * * * * * * * * * * * * * * * * * * * * * * * * //

dimensions      [0 1 -1 0 0 0 0];

internalField   nonuniform List<vector> 
39
(
(0.485845 0.821456 -3.4115e-19)
(0.474688 1.11045 1.66173e-18)
(0.493304 1.02067 3.58224e-19)
(0.258975 1.35214 7.34928e-19)
(0.346991 1.23089 -5.13247e-19)
(0.4312 1.21176 9.88368e-19)
(0.457997 1.1295 -1.53455e-18)
(0.303264 1.32826 -2.66956e-19)
(0.364467 1.30062 -6.16593e-19)
(0.404043 1.19834 1.132e-18)
(0.308663 1.5767 -1.81714e-19)
(0.246378 1.68134 1.18903e-19)
(0.334889 1.58064 1.87942e-19)
(0.344754 1.56095 2.72437e-19)
(0.596616 1.50518 0)
(0.516085 1.81398 0)
(0.61735 1.93296 -5.82389e-19)
(0.352069 1.72618 0)
(0.268719 1.74574 0)
(0.63903 1.50369 2.81303e-19)
(0.612841 1.62762 0)
(0.676917 1.66744 0)
(0.743097 1.46469 0)
(0.703255 1.45939 -1.00608e-18)
(0.408028 1.73432 -5.26596e-19)
(0.532169 1.61778 -1.45868e-19)
(0.531507 1.74538 1.17695e-19)
(0.401918 1.55645 0)
(0.546917 1.53441 0)
(0.466487 1.54529 -3.18578e-19)
(0.495785 1.60961 0)
(0.337989 1.80037 -6.36773e-19)
(0.363215 1.77861 2.40914e-20)
(0.389948 1.64707 8.11747e-19)
(0.39375 1.57953 1.28519e-18)
(0.450043 1.61116 -8.72231e-19)
(0.364194 1.60175 -1.59024e-19)
(0.316829 1.63532 2.63692e-19)
(0.259116 1.60195 -3.16976e-19)
)
;

boundaryField
{
    wall-4
    {
        type            noSlip;
    }
    velocity-inlet-5
    {
        type            fixedValue;
        value           nonuniform List<vector> 0();
    }
    velocity-inlet-6
    {
        type            fixedValue;
        value           nonuniform List<vector> 0();
    }
    pressure-outlet-7
    {
        type            zeroGradient;
    }
    wall-8
    {
        type            noSlip;
    }
    frontAndBackPlanes
    {
        type            empty;
    }
    procBoundary23to18
    {
        type            processor;
        value           nonuniform List<vector> 3((0.508801 0.987415 0) (0.771123 1.46779 8.13599e-19) (0.582969 2.06334 0));
    }
    procBoundary23to21
    {
        type            processor;
        value           nonuniform List<vector> 3((0.290269 1.76478 -2.28807e-19) (0.319479 1.89113 -5.72867e-19) (0.333731 1.7532 -1.11597e-19));
    }
    procBoundary23to22
    {
        type            processor;
        value           nonuniform List<vector> 4((0.298071 1.2758 -2.30591e-19) (0.289369 1.60612 0) (0.245735 1.67798 0) (0.264774 1.60175 4.95622e-19));
    }
}


// ************************************************************************* //
