/*--------------------------------*- C++ -*----------------------------------*\
| =========                 |                                                 |
| \\      /  F ield         | OpenFOAM: The Open Source CFD Toolbox           |
|  \\    /   O peration     | Version:  2412                                  |
|   \\  /    A nd           | Website:  www.openfoam.com                      |
|    \\/     M anipulation  |                                                 |
\*---------------------------------------------------------------------------*/
FoamFile
{
    version     2.0;
    format      ascii;
    arch        "LSB;label=32;scalar=64";
    class       volScalarField;
    location    "3";
    object      p;
}
// * * * * * * * * * * * * * * * * * * * * * * * * * * * * * * * * * * * * * //

dimensions      [0 2 -2 0 0 0 0];

internalField   nonuniform List<scalar> 
918
(
0.527158
0.819392
0.0144967
0.512371
0.00364179
0.784066
-0.761747
0.422105
0.502517
-0.109546
0.0139459
0.439601
0.65251
0.404703
-1.33553
0.0312967
0.536164
-0.839892
0.451126
0.00726165
0.51038
0.538018
0.513806
0.443729
0.484531
0.517185
0.525821
0.00465659
0.00282626
0.00376271
0.0153283
0.0119736
0.0175687
0.667766
0.718959
0.742886
0.435544
0.109968
-0.47174
-0.572179
-0.548476
-0.8738
0.442066
0.46333
-0.224278
0.39137
0.37695
0.453273
0.496508
0.502107
0.503826
0.502849
0.518623
0.272103
-0.134907
-0.210083
-0.075805
-0.0488369
0.0788079
0.0134826
0.0226929
0.0260477
0.0166694
0.393121
0.437939
0.439157
0.449382
0.446828
0.758559
0.728666
0.754614
0.677655
0.689443
0.62822
0.589539
0.41025
0.441475
0.385211
0.385329
-1.63085
-2.25381
-0.933095
-0.701025
0.00193326
0.0311676
0.0344866
0.531622
0.546089
0.524333
0.530137
0.656938
-0.706321
-0.933873
0.46554
0.462399
0.515115
0.493949
0.482378
0.456849
0.00835274
0.0104474
0.00535217
0.0138978
0.00200619
0.333606
0.322862
0.422001
0.453468
0.444525
0.463142
0.454924
0.236355
0.496712
0.506855
0.17079
0.38331
0.438967
0.411776
0.487458
0.44291
0.558192
0.57439
0.00885149
0.004648
0.0148274
0.00891547
0.00917209
0.430956
0.421858
0.452715
0.433438
0.449332
0.00789907
-0.12836
0.224432
0.395261
-0.277395
-0.381696
-0.766859
-0.681473
-0.964769
0.756588
0.469816
0.492303
-0.172397
-0.146988
-0.280767
-0.0610923
-0.154276
0.458764
0.450497
0.445849
0.455956
0.45296
0.461345
0.504801
0.503884
0.50376
0.289705
0.354429
0.244532
0.204185
-0.466952
-0.244465
-0.443175
-0.0264281
-0.0202883
0.0860674
0.105483
0.0770439
0.0625798
-0.0129511
0.0200966
0.014253
0.023257
0.0224413
0.393284
0.376091
0.396482
0.405177
0.443579
0.43652
0.435507
0.438214
0.554062
0.568812
0.578006
0.548884
-2.83264
-4.742
-0.464646
-0.290529
0.0114118
0.00944624
0.00355108
0.00564836
0.00526519
0.00265705
0.0465373
0.0592162
0.0220862
0.0377316
0.530407
0.537476
0.646188
0.697615
0.583379
0.587719
0.454961
0.460958
0.466005
0.460477
0.0162139
0.0069497
0.0116459
0.350653
0.306678
0.334149
0.208414
0.122979
0.276619
0.305297
0.523377
0.519086
0.534828
0.26216
0.279916
0.583617
0.621005
0.591215
0.610496
0.662576
0.68205
0.656457
0.40266
0.425078
0.421602
0.4508
0.448714
0.45432
0.449354
0.442917
0.441963
-0.199874
-0.485696
0.682454
0.609666
0.46811
0.575836
0.728298
0.76225
0.516463
0.491572
0.513547
-0.0302369
-0.0841609
0.195193
0.170228
0.337496
0.35675
0.344962
0.523899
0.452129
0.52728
0.494259
0.4414
0.479491
-0.465
-1.37814
-0.823249
0.11358
-0.125718
0.00717144
0.0579729
0.0462816
0.050779
0.678846
0.731588
0.386181
0.494318
0.483639
0.373575
0.372996
0.448318
0.371825
0.409395
0.437102
0.398069
0.716117
0.685049
0.740402
0.732217
0.759853
0.0897074
0.0349408
-0.00837851
0.12201
0.13972
0.133083
0.703467
0.721162
0.750782
0.431682
0.457924
0.0134554
0.0181899
0.492383
0.500513
0.00549484
0.0068124
-0.129645
-1.21096
0.145435
0.469991
0.461304
0.482402
-0.0920036
0.250188
0.0232442
0.0941581
0.0667169
0.438622
0.405671
0.36499
0.0206579
0.0164561
0.0101654
-0.320045
0.484305
0.459079
0.486757
0.48351
0.490098
0.0115659
0.0132782
0.0207598
0.00315484
0.0137203
0.0284893
0.435782
0.438738
-0.159091
0.479204
0.481243
0.488684
0.473071
0.486338
0.473729
0.0155586
0.0118647
0.0127064
0.185943
0.304801
0.222789
0.501842
-0.0363616
-0.202857
-0.421674
0.0989243
0.217038
0.0277838
0.326158
0.448214
0.380508
0.200136
0.0729226
0.181223
0.1101
0.46443
0.467588
0.452406
0.457098
0.472207
0.459814
0.483628
0.468381
0.481015
0.491181
-0.0188419
-0.0542316
-0.0934815
-0.149647
0.274336
0.365724
0.206635
0.233037
0.140374
0.0282919
0.0374216
0.029506
0.0259003
0.0713402
0.0697185
0.0729813
0.0800633
0.0495775
0.0452489
0.0725612
0.0531928
0.0609134
0.433744
0.433314
0.434372
0.460055
0.41802
0.406683
0.3858
0.401847
0.403307
0.350222
0.362689
0.352714
0.0166287
0.0228788
0.0131744
0.0360982
0.0204769
0.00825344
0.00673234
-0.0212102
-0.00236298
0.0126872
0.0157468
0.0138638
-0.234341
-0.400472
0.605986
0.527082
0.299345
0.469457
0.469757
0.456555
0.466667
0.490524
0.493293
0.485552
0.454831
0.445744
0.447652
0.438125
0.450173
-0.086635
-0.268326
-0.0340465
-0.13805
0.105208
0.499894
0.306744
0.277743
0.264786
0.418319
-0.429219
-0.208568
0.459413
0.547037
-0.906276
-0.578371
-0.797982
-0.52419
-0.541786
0.27353
0.335776
0.344759
0.300148
0.205052
-0.303337
0.324071
-0.0154229
0.0277413
0.273505
0.139005
0.126308
0.467638
0.485943
0.351527
0.333654
0.419322
0.395315
0.406592
0.402412
0.426798
0.375112
0.2173
0.205031
0.171153
0.499386
0.393389
0.421236
0.378147
0.463879
0.46737
0.460478
0.451529
0.448535
0.43944
0.451899
0.448018
0.457733
0.46517
0.455929
0.460367
-0.0249633
-0.0123613
-0.0603693
-0.190812
-0.16105
-0.25184
-0.0959224
0.101096
0.0412291
0.254652
0.348726
0.0809455
-0.094163
-0.0448169
0.030337
0.166964
0.14534
0.102022
0.162728
0.171891
0.135518
0.205889
0.19288
0.0440332
0.0593407
0.0352934
0.0382586
0.10239
0.114653
0.121224
0.0645174
0.0768909
0.0264914
0.0285967
0.0865389
0.0681041
0.082325
0.0684018
0.0226245
0.0332467
0.0429211
0.0411812
0.0681741
0.0498452
0.440038
0.440475
0.439536
0.429909
0.45153
0.459748
0.420328
0.429353
0.425997
0.430129
0.396254
0.398582
0.398317
0.407538
0.417979
0.424104
0.446601
0.443478
0.417118
0.419288
0.397934
0.404928
0.385677
0.378088
0.374741
0.0293489
0.0102291
0.0135001
0.0265719
0.0187739
0.0195443
0.0461045
0.0487761
0.0594514
0.0315692
0.0552548
-0.0107943
0.0128272
-0.0627382
0.0524456
-0.225128
-0.289862
-0.362459
0.592384
0.65012
0.519031
0.44169
0.47059
0.546796
0.577694
0.386313
0.455315
0.44094
0.683463
0.673309
0.435098
0.427749
0.456193
0.442159
0.450485
0.0570003
0.214351
0.214819
0.330335
0.295996
0.293281
0.439408
0.423643
0.512122
0.486629
0.493836
0.507062
0.469177
0.490475
0.501372
0.350154
0.430183
0.449486
0.443855
0.442071
0.454539
0.441895
0.443337
0.424705
0.41449
0.417577
0.358592
0.379866
0.366641
0.368851
0.418013
0.412969
0.4144
0.408859
0.432779
0.444147
0.447229
0.466179
0.457929
0.398229
0.370189
0.383527
0.406802
0.379273
0.386172
0.391127
0.43799
0.496486
0.366827
-0.0870687
-0.0154387
-0.177668
-0.167689
-6.27722e-05
0.273492
-0.305613
-0.403483
-0.770991
0.389877
-0.576489
-0.162253
-0.288552
0.298384
0.267801
0.195469
0.203565
0.275683
0.483067
0.491187
0.500984
0.38767
0.381696
0.306504
0.351558
0.424282
0.409573
0.427409
0.384849
0.266795
0.320186
0.390444
0.36556
0.290912
0.289935
0.384635
0.289862
0.31581
0.37916
0.331301
0.321113
0.412128
0.467694
0.461574
0.436089
0.380549
0.39282
0.395491
0.42202
0.427585
0.425118
0.450493
0.44914
0.443866
0.452947
0.452733
0.450167
0.439886
0.457629
0.459901
0.474729
0.465883
0.0246404
0.034882
0.00121591
-0.00744486
0.0514471
0.0288043
-0.0196518
-0.0251235
0.0562243
0.051937
0.0173638
-0.00978573
0.0208571
0.0464038
0.157659
0.180053
0.177745
0.120564
0.261794
0.319723
0.374238
0.333754
0.216163
0.228981
0.241198
0.0909361
0.0896091
0.0805908
0.102135
0.103324
0.0112607
0.0073221
0.012017
0.053583
0.0323175
0.00535969
0.0197158
0.0205695
0.0166909
0.0209747
0.0190638
0.432812
0.41303
0.389984
0.380149
0.391117
0.406316
0.429453
0.434935
0.444963
0.436607
0.432222
0.431066
0.440099
0.00637764
0.0156594
-0.000904968
0.0222091
0.0323228
0.00971337
0.0209732
0.293412
0.166332
0.248147
0.0918784
-0.140638
-0.0357497
0.519621
0.636352
0.666843
0.645089
0.58742
0.588352
0.650063
0.677528
0.405999
0.532711
0.464805
0.641082
0.634176
0.670862
0.5461
0.442433
0.505443
0.581369
0.465574
0.448791
0.41211
0.332365
0.344227
0.40917
0.515344
0.391527
0.415452
0.451711
0.441497
0.418116
0.475709
0.416748
0.503052
0.367407
0.3769
0.30073
0.473226
0.495946
0.513221
0.478928
0.498109
0.471728
0.47421
0.479334
0.490549
0.489441
-0.566771
-0.332055
-1.28266
-1.17692
-0.728908
0.299422
0.402493
-0.124242
0.21273
-0.051151
0.136189
0.302856
0.343726
0.310176
0.256631
0.34068
0.394369
0.39182
0.386349
0.290575
0.254922
0.441595
0.445537
0.43698
0.454865
0.452633
0.461014
0.432798
0.446976
0.438412
0.441177
0.438465
0.437495
0.112776
0.087442
0.127155
0.0991088
0.0658194
0.0858514
0.0172053
-0.00850421
0.0124153
0.0350703
0.0151215
0.0373238
0.33514
0.337476
0.139718
0.25043
0.066627
-0.0464577
-0.0710532
0.0915121
0.190546
0.215304
0.448749
0.559824
0.505209
0.515447
0.428021
0.462136
0.617438
0.540247
0.60808
0.534779
0.54539
-0.0189917
-0.228897
-0.321819
-0.642839
-0.314481
0.00469418
-0.131761
-0.453723
-0.539688
0.402222
0.395886
0.367432
0.351366
0.351923
0.0374483
0.082232
0.25304
0.583914
0.450105
0.302613
0.376493
0.510886
0.540034
)
;

boundaryField
{
    wall-4
    {
        type            zeroGradient;
    }
    velocity-inlet-5
    {
        type            zeroGradient;
    }
    velocity-inlet-6
    {
        type            zeroGradient;
    }
    pressure-outlet-7
    {
        type            fixedValue;
        value           uniform 0;
    }
    wall-8
    {
        type            zeroGradient;
    }
    frontAndBackPlanes
    {
        type            empty;
    }
}


// ************************************************************************* //
