/*--------------------------------*- C++ -*----------------------------------*\
| =========                 |                                                 |
| \\      /  F ield         | OpenFOAM: The Open Source CFD Toolbox           |
|  \\    /   O peration     | Version:  2412                                  |
|   \\  /    A nd           | Website:  www.openfoam.com                      |
|    \\/     M anipulation  |                                                 |
\*---------------------------------------------------------------------------*/
FoamFile
{
    version     2.0;
    format      ascii;
    arch        "LSB;label=32;scalar=64";
    class       surfaceScalarField;
    location    "3";
    object      phi;
}
// * * * * * * * * * * * * * * * * * * * * * * * * * * * * * * * * * * * * * //

dimensions      [0 3 -1 0 0 0 0];

oriented        oriented;

internalField   nonuniform List<scalar> 
1300
(
3.75095
5.62643
-6.57932
3.75095
-6.36814
5.62643
-6.03279
6.03279
-1.67881
1.67881
1.88279
1.86816
-5.75073
5.75073
-5.55864
5.55864
-3.03769
3.03769
-5.23838
5.23838
-5.15661
5.15661
4.46515
-4.46515
-5.2525
5.2525
-2.18672
2.18672
-6.23487
6.23487
3.15668
-3.15668
-5.5879
5.5879
-0.933247
0.933247
-0.567756
4.31871
3.1832
3.1832
-2.79199
2.79199
-4.86801
4.86801
6.22468
-6.22468
9.81159
-9.81159
-3.23227
-3.2902
1.30298
-8.03857
-5.06516
-5.06516
-8.44092
8.44092
-2.81449
2.81194
3.17845
-3.17845
-1.72778
1.72778
-5.72069
-0.312103
-5.72069
6.33692
-0.304127
6.33692
-1.7908
0.111996
-1.7908
4.55398
-4.55398
1.52969
0.14912
1.52969
3.17049
-3.17049
-1.88608
3.76887
1.86487
-1.83503
6.15374
-1.91592
3.78409
-4.93495
4.93495
-5.84119
0.0904643
-5.84119
5.65362
0.0971114
5.65362
-5.45848
5.45848
-5.56759
0.00894289
-5.56759
5.57267
-0.0140287
5.57267
3.22562
-3.22562
-3.06491
0.0272197
-3.06491
3.04007
-0.00237174
3.04007
0.357844
5.26859
-5.98427
8.79621
-5.26859
0.0302066
5.20752
0.0308581
5.20752
-5.1776
0.0209864
-5.1776
5.09829
0.058325
5.09829
4.29179
0.173363
4.29179
-4.73002
0.264873
-4.73002
-3.2654
-3.28294
-5.35364
0.101145
-5.35364
-2.21169
0.0249662
-2.21169
2.12076
0.0659663
2.12076
-3.85008
3.85008
-6.52702
0.292159
-6.52702
3.09165
0.0650296
3.09165
1.86209
1.88887
5.61304
-5.61304
2.45636
-5.60419
0.0162921
-5.60419
-5.57378
-4.23781
5.57378
0.0141245
-1.26906
0.335812
-1.26906
3.1773
0.00589424
3.1773
2.97144
0.0686266
-2.97144
0.179446
3.65508
-3.65508
2.15531
0.636678
2.15531
-5.5161
5.5161
5.01218
0.0861039
-5.01218
0.144173
6.14257
0.0821167
6.14257
-6.21255
-0.0121374
-6.21255
3.3303
-6.6205
-3.27565
5.14498
0.107514
-5.14498
0.0798266
3.21286
-0.0344135
3.21286
-3.13058
3.13058
-3.18238
0.00393907
-3.18238
-1.67955
-0.0482252
-1.67955
2.01578
-0.288004
2.01578
-5.19011
-0.530573
-5.19011
-6.53498
0.00795478
6.53498
-0.198063
3.00141
-3.00141
-1.92354
0.132738
-1.92354
-4.81593
-0.37418
4.81593
-0.261949
-4.27087
-0.283114
-4.27087
-3.17231
-0.0100714
3.17231
-0.00182462
3.14796
0.029342
-3.14796
-0.0225282
-1.87442
3.76329
-1.87653
3.7414
-4.78892
-0.146033
-4.78892
5.04953
-0.11458
5.04953
6.03787
0.196996
-6.03787
0.196675
5.6179
0.0357143
5.6179
-5.3872
-0.0712735
-5.3872
5.49957
-0.0410959
5.49957
5.61973
-0.00182622
-5.61973
0.0521441
5.55811
0.0145613
5.55811
3.30756
-0.0819352
3.30756
-3.20606
-0.0195649
-3.20606
3.14771
-3.14771
3.09402
0.0536858
-3.09402
0.0291081
-11.1024
11.0902
-0.0167139
-11.0857
5.19081
5.19081
3.29203
0.999753
3.29203
-4.98915
0.259124
-4.98915
3.27531
-6.55096
3.25662
-6.52203
3.34113
-11.3797
3.28048
-6.56342
5.46226
-5.46226
5.43381
0.0284513
-5.43381
0.0801695
-2.1876
-0.0240846
-2.1876
-3.71975
-0.130328
-3.71975
4.1308
-0.280716
4.1308
-3.16762
3.16762
-3.12897
-0.0386556
3.12897
-0.0373184
5.5753
-0.0171867
-5.5753
-0.0288951
1.40558
0.124111
-1.40558
0.136518
3.82055
-0.165474
3.82055
-3.48563
-0.16945
-3.48563
-2.18893
0.00133002
2.18893
-0.0336198
-5.76359
0.247492
-5.76359
-11.1792
0.0934997
-11.1483
-6.11905
-6.11905
2.32187
11.1181
-3.18867
-0.0173887
3.18867
0.0241884
3.15219
0.0154364
-3.15219
0.0216047
-3.13966
-0.00805098
3.13966
-0.00907496
-1.80698
0.127431
-1.80698
-2.60523
2.60523
-2.33199
-0.273242
2.33199
-0.316205
3.07978
-0.0783746
3.07978
2.0673
0.0534522
-2.0673
0.143761
-4.11041
-0.160462
-4.11041
5.23475
-0.185223
5.23475
-3.3656
-0.120032
3.3656
-0.058039
-0.0063168
11.0965
-5.18449
0.00689339
5.18449
-11.1787
11.1856
-2.3507
0.543711
2.3507
0.941338
5.24782
0.268277
-5.24782
0.258675
5.53976
-0.0401887
-5.53976
0.0774972
-3.57327
-0.146486
-3.57327
-4.46756
-0.321364
4.46756
-0.336759
-11.4235
-0.220346
11.6438
-11.3652
5.98393
0.158634
-5.98393
11.3442
-2.83314
-0.168272
2.83314
-0.227908
3.2542
-0.174421
3.2542
3.99836
-0.177811
-3.99836
-0.112043
-5.33509
-0.0521092
5.33509
-0.100339
-3.42373
-0.149537
3.42373
-0.169525
-4.15934
4.16523
1.9944
-3.30593
-3.31456
-7.54375
1.77798
1.98531
4.23434
-6.99892
-4.38078
-6.9191
7.32185
-7.06317
-8.83602
9.00938
7.26262
-7.54573
-5.83824
5.80092
6.37183
-6.37365
1.84182
1.92706
10.7315
-10.6411
-10.0804
9.93439
10.1664
-10.1575
10.4851
-10.5564
-12.1762
12.136
-5.65953
5.68675
-6.60744
6.58788
-6.65793
6.59989
-3.29931
-3.22272
9.01011
-8.90897
11.6611
-11.6448
-11.2649
11.5571
3.29187
0.87336
3.32122
-1.93051
3.77232
-1.85358
3.84798
3.27218
-6.57149
3.27878
-6.59334
5.97483
5.68626
-5.98895
-1.55479
-5.89433
5.85991
-5.80241
5.79333
10.4562
-10.7684
-1.86496
3.79201
-1.87645
3.86176
-3.38098
-2.45726
3.31595
0.918386
5.51825
3.49186
-5.62577
-1.29333
-7.55885
7.38104
-7.73843
7.56898
-0.5912
5.91792
-5.32672
4.27681
-1.62327
7.54119
5.69858
5.9577
5.90544
-5.63716
1.15773
-6.48445
-6.34028
-2.57419
2.70692
2.57938
-2.43025
6.05084
1.21177
5.7889
-5.3904
-2.15533
-5.55086
3.85661
1.94431
3.81796
4.08352
2.28831
4.07345
3.05032
-3.06496
0.0146339
-3.04994
6.10026
0.727056
-5.5072
-4.58881
6.96927
3.76227
7.06638
-7.28394
-3.35712
-7.08727
-6.04551
-4.03491
-6.36687
6.4521
3.48229
6.33752
-7.82915
7.72881
6.72218
3.44427
6.70815
-6.83102
-3.32648
-6.77888
10.196
-2.65954
-7.53643
-6.7836
-5.39257
6.8247
3.6604
7.40103
4.73495
7.47853
3.52776
6.66821
-7.18816
1.7956
-3.79609
-1.86344
-3.76699
3.62762
2.05913
3.62525
-4.18808
-2.41937
-4.20546
-4.18778
-2.47015
4.26971
2.31816
-4.26055
-3.47788
4.38058
2.21931
2.93995
-7.32073
3.62347
-6.84618
-6.28998
-2.61899
-6.20981
4.00322
2.52014
-6.52336
-2.56827
10.7164
-5.03015
9.16161
-7.23382
-4.41097
-7.26272
-8.69097
-2.57396
-8.68301
-5.36784
5.22135
-5.50347
5.22275
10.4341
-5.7801
-4.65405
-3.90337
-2.47028
3.9259
-0.604684
-3.76769
3.78233
0.00463205
3.85261
4.72597
4.12129
-3.84682
-1.95559
-3.82521
3.83185
1.96148
3.8238
8.50895
1.9473
8.20482
-7.07413
-3.69422
-7.6047
6.07004
-6.11826
3.00103
-2.9997
5.09746
2.47152
-4.93199
-2.62686
5.89405
-2.96771
-2.92634
-12.8615
10.7641
2.09744
-5.32036
-1.04355
-0.110303
-5.43972
-3.3963
5.17485
0.782854
11.547
8.15066
-5.52239
5.76988
6.12146
6.20756
-0.132719
4.32603
-3.78232
3.29878
-0.652924
-2.64585
5.62084
-5.99502
-1.98387
-5.37768
3.39381
-0.206123
2.251
-1.91519
-2.08258
-0.491603
-1.93882
1.66044
0.918934
1.78455
0.936956
1.76997
-2.74801
0.548291
2.19971
-1.81105
-1.88196
-3.51864
-0.687302
4.20594
5.46905
1.91199
-5.357
-0.193861
2.77613
-2.71016
-0.868093
-2.65055
1.81639
-2.68448
-3.15629
-1.94664
5.10293
-3.347
-0.47821
3.33157
0.48639
-3.76418
-2.13015
3.76024
0.313209
-2.9723
6.04323
-3.07093
-4.92789
2.58285
3.51741
4.52716
-4.6953
2.35189
2.34341
-1.17789
6.01459
1.05179
6.0503
-9.00226
5.64514
7.65926
3.89784
-7.85625
0.768982
-8.23328
9.56682
-8.30201
-1.26481
4.89643
4.67039
5.30482
5.12933
-3.66658
8.97139
-1.1723
-7.12971
9.40558
-5.50774
5.75937
-11.2671
-10.8887
3.759
-6.7319
8.34338
-1.61147
-2.42015
-5.409
9.15205
-0.743297
-8.40876
5.59422
-5.28244
-5.36627
10.6487
-7.94199
8.69275
-2.53888
-6.15387
-6.56135
-3.99502
6.61346
1.11535
-9.69928
11.4949
-3.03106
5.82674
0.881408
5.8413
3.84492
-5.91764
2.07272
4.09707
-6.63595
2.40955
-8.3272
-4.82813
9.44824
-4.62011
-7.44712
-6.51323
-0.933883
1.99707
9.4978
-6.73202
5.21607
1.51595
3.29574
0.528062
-3.34942
-0.417562
0.320501
4.37608
-4.69658
3.94575
4.01438
3.4428
0.933282
3.8194
2.04051
-3.84359
-0.361878
-3.8799
1.40975
-1.56173
-3.43131
4.84105
-3.83162
0.400314
-2.66909
-3.40724
6.07633
-4.53252
2.97521
3.06802
4.93669
-4.75545
1.34821
-2.40864
-2.3468
2.48341
-4.04515
1.8937
2.94735
4.11301
0.635133
4.82869
4.61954
-7.34884
0.502656
8.1114
-6.81808
1.61038
5.86815
-6.82645
0.313213
-5.8966
1.12842
-6.15857
-5.39494
6.17233
-8.74629
-5.09479
7.90618
0.298637
-7.70812
-0.974895
-3.8098
-1.55804
-3.95933
-1.6607
-3.84277
-5.32727
-1.24826
-4.07902
3.9731
-4.14139
-2.22548
4.47815
0.744599
-4.72377
4.5555
-4.64611
4.47169
0.198971
3.58336
4.32026
1.84998
-2.40547
4.25544
-6.8439
8.7912
-10.1922
3.34832
3.68895
-7.38317
-6.50327
3.66789
2.40215
3.37988
6.0162
-7.61162
1.59542
-6.65156
7.48119
-0.829629
-10.1175
3.4659
-4.10126
2.74616
0.254868
2.72207
0.711332
2.27227
-2.9836
-2.28836
-2.32198
-2.20622
-3.16629
5.3725
1.04174
-3.22426
2.18252
-3.1937
4.23544
-0.226881
-2.99738
5.0697
-2.79743
5.32457
-3.42058
1.90399
3.09662
5.2036
-2.10698
4.10287
-1.63135
1.69028
-3.79727
-1.476
-2.89932
4.95845
-3.17701
3.57732
-0.261874
3.83919
-3.9874
1.01969
-0.544602
3.46977
3.64922
4.00902
-3.07574
2.71459
-4.34594
-1.08268
-3.7108
-0.763454
-1.8576
-4.70472
6.56232
4.91955
-6.77714
-3.81864
6.55242
-2.73378
5.48344
-4.50215
-0.981289
-2.95932
-3.15894
2.83189
1.49414
6.97758
-0.117531
-4.38462
-3.89985
-2.95851
3.28017
0.0186106
-3.28219
5.37964
3.3925
-1.1415
0.449391
1.33516
1.80241
-1.35302
0.443505
1.3589
-1.47168
2.04051
0.735622
-2.09396
0.155139
-1.23976
3.05615
0.959952
-1.87889
0.525869
1.82611
-2.47903
4.1789
-1.48789
-2.69101
6.00501
1.6694
-3.15729
3.70828
-3.9144
2.31851
-3.00582
-0.838776
-4.75318
-3.54141
-2.30153
4.48405
-3.07098
4.98297
1.32776
-4.78911
6.11687
-3.39078
1.44415
-2.78553
3.52115
-0.844659
-1.94087
2.57619
2.52674
-2.70949
0.0589399
-0.133301
2.11884
-2.25214
-0.565638
-2.37669
-4.40477
4.71798
-2.13898
4.49087
2.11646
-1.95086
6.44174
1.79313
-3.74399
-3.13476
-3.61297
-1.40058
3.12658
-0.873876
-5.905
-7.02774
5.90683
0.143468
-8.92912
10.0589
-1.12976
-5.16685
-0.478286
5.37472
-7.30125
0.665303
-4.8917
5.16718
6.21897
6.36244
-8.25239
-0.156369
-4.7701
1.17969
-5.94979
5.85008
-2.69241
6.45141
-7.02358
4.7981
-6.27898
5.1866
-0.763192
5.44947
-3.37675
2.08696
-6.08198
-4.96663
6.97389
-3.52962
7.8553
-4.08803
11.9433
-7.11909
6.87771
5.06562
-1.40158
-5.86114
-6.84068
5.4391
0.037026
5.87833
4.78266
-2.74214
4.42078
2.04373
-4.45238
-2.00141
-6.28451
1.83214
-3.21649
-1.82386
3.656
3.11283
3.64089
1.30919
-3.22333
6.53026
-7.46415
-1.91016
-3.48479
6.72481
-1.28571
3.84472
-7.32951
-2.31385
5.33558
-0.829807
-4.50577
0.444522
-5.53931
2.60955
-8.14886
6.13674
-7.11164
1.39547
-5.49672
-3.3283
-3.55621
-1.3358
-3.31031
-4.63271
3.29691
-1.16681
3.38868
-5.4039
4.57409
-2.07729
5.37419
-3.42238
-0.536952
3.59191
0.87978
6.25397
-1.20856
-5.29471
-0.0011153
4.82225
-4.82114
3.27905
-5.91328
-1.09103
2.96274
3.04227
-6.35655
-1.02662
-6.32132
-2.74613
5.14828
3.80629
8.72583
1.11421
5.44068
-0.292396
6.55489
3.08749
2.77128
-3.72772
5.32314
2.8346
6.18291
-0.834458
2.73845
1.88762
1.91258
0.797582
2.22549
1.42373
3.24518
0.261579
-2.06041
4.34416
-7.30267
-0.0404642
-6.30292
2.70647
5.71596
-3.00949
3.60952
-3.59091
-1.21161
0.748649
-0.938113
0.189464
-1.8972
-2.07961
-0.72071
-1.51787
2.04374
1.53828
-1.32303
-0.574178
0.161176
-3.70258
2.84464
-2.7857
-0.258959
5.85791
-2.44011
0.18797
-0.995966
-2.18872
-2.68032
2.52518
6.08114
0.360595
3.01021
5.07857
2.94843
0.206281
4.38435
-5.99582
-3.94285
-6.15219
-0.302112
5.07261
1.87697
7.62084
6.94258
5.65687
-1.67264
-9.13679
7.25326
-1.93012
6.42363
-1.91786
-6.231
6.41137
2.37983
-6.71001
-0.401627
-6.63263
-8.56274
-0.477424
5.05152
-5.77655
5.2396
3.68155
0.397464
-2.8166
-0.739606
3.08984
-0.318562
6.23633
-2.13941
-7.11936
9.25877
-3.57655
3.53608
3.25913
2.12051
3.44859
-0.142318
-7.26168
-10.2712
-1.1931
-1.28594
-3.88411
0.321833
-1.86012
4.62801
-1.09193
3.64673
8.16684
6.95522
-2.22808
-4.54906
4.96186
-1.31514
5.64008
)
;

boundaryField
{
    wall-4
    {
        type            calculated;
        value           uniform 0;
    }
    velocity-inlet-5
    {
        type            calculated;
        value           uniform -3.75095;
    }
    velocity-inlet-6
    {
        type            calculated;
        value           uniform -5.62643;
    }
    pressure-outlet-7
    {
        type            calculated;
        value           nonuniform List<scalar> 8(6.57932 6.36814 6.52247 6.73559 6.54834 6.60595 6.53193 6.62161);
    }
    wall-8
    {
        type            calculated;
        value           uniform 0;
    }
    frontAndBackPlanes
    {
        type            empty;
    }
}


// ************************************************************************* //
