/*--------------------------------*- C++ -*----------------------------------*\
| =========                 |                                                 |
| \\      /  F ield         | OpenFOAM: The Open Source CFD Toolbox           |
|  \\    /   O peration     | Version:  2412                                  |
|   \\  /    A nd           | Website:  www.openfoam.com                      |
|    \\/     M anipulation  |                                                 |
\*---------------------------------------------------------------------------*/
FoamFile
{
    version     2.0;
    format      ascii;
    arch        "LSB;label=32;scalar=64";
    class       volVectorField;
    location    "3";
    object      U;
}
// * * * * * * * * * * * * * * * * * * * * * * * * * * * * * * * * * * * * * //

dimensions      [0 1 -1 0 0 0 0];

internalField   nonuniform List<vector> 
918
(
(0.973606 -0.0346432 0)
(0.00345542 2.96727 0)
(-0.065912 1.73194 0)
(0.911627 0.0569763 0)
(-0.0185833 1.70362 -1.14837e-20)
(-0.00662659 2.94878 -1.65805e-18)
(1.16216 1.56653 6.66353e-19)
(0.566784 0.306488 -9.59925e-21)
(0.993509 -0.00292821 0)
(0.0157251 1.74763 0)
(0.0187888 1.69215 0)
(0.921023 0.0295418 0)
(0.0170675 2.92625 0)
(-0.00470144 2.85411 0)
(-0.0426056 3.05762 1.11188e-18)
(0.00233584 1.67396 -2.92131e-20)
(0.704668 0.141313 8.18616e-19)
(0.259651 1.97959 6.37156e-19)
(0.959567 0.0448185 0)
(0.0193816 1.70503 0)
(0.44706 0.351946 -4.78986e-19)
(0.942708 -0.0134603 0)
(0.943236 -0.0220988 0)
(0.975637 0.0153755 0)
(0.839797 0.0421979 0)
(0.054395 2.64281 0)
(-0.0310013 2.91183 5.56554e-19)
(-0.0155664 1.73679 0)
(-0.00880817 1.74186 0)
(-0.00948046 1.73718 0)
(0.0051959 1.7831 0)
(-0.020965 1.71666 9.11254e-21)
(-0.016661 1.6787 0)
(-0.0227517 2.98767 -5.7145e-23)
(-0.016966 3.00539 1.29377e-18)
(0.0021214 3.00003 0)
(0.96788 0.00141168 0)
(0.548564 0.686348 2.8176e-20)
(1.09176 1.61134 -6.05175e-19)
(1.25126 1.31698 6.91254e-19)
(0.932484 1.81258 -1.4785e-19)
(1.01418 1.79062 9.23184e-19)
(0.603704 0.323356 9.36566e-21)
(0.573617 0.297251 0)
(1.31824 0.673589 0)
(0.588554 0.346793 3.73907e-20)
(0.52415 0.342847 -3.87915e-20)
(0.95931 -0.0155738 0)
(0.993449 -0.000136965 0)
(0.99621 0.00247515 0)
(0.956216 -0.05127 0)
(0.996806 -0.00591015 0)
(1.00754 2.17554e-06 0)
(-0.0241306 1.60388 -5.13414e-19)
(-0.00137846 1.79033 0)
(0.0381135 1.78507 0)
(0.0135233 1.78145 0)
(0.00714252 1.70049 0)
(-0.0119672 1.68349 0)
(0.0100196 1.73482 0)
(0.0173063 1.69016 0)
(0.00867665 1.73082 0)
(0.00616366 1.69995 0)
(0.973692 -0.0124044 0)
(0.960037 0.0132936 0)
(0.928689 0.00607932 0)
(0.938489 0.00478855 0)
(0.925239 -0.0126803 0)
(0.016484 2.99963 6.0603e-19)
(0.0137733 3.00792 0)
(0.007386 3.00165 0)
(0.014572 2.99364 6.79293e-24)
(0.0129559 2.95713 -9.00743e-19)
(0.0128044 2.97609 0)
(0.00911344 2.90716 0)
(0.00282333 2.96648 1.05055e-24)
(-0.0144386 2.87709 0)
(0.0242465 2.95302 0)
(-0.00630707 2.80296 0)
(0.132444 3.26145 0)
(-0.12779 3.3044 0)
(0.0564266 3.12855 1.03121e-18)
(-0.0290477 2.96528 0)
(-0.00560686 1.74447 0)
(0.0016395 1.71966 2.88177e-20)
(0.00975525 1.6808 -2.53657e-20)
(0.741097 0.178226 -2.85755e-19)
(0.719035 0.124749 -2.88617e-19)
(0.722698 0.219882 -8.50964e-19)
(0.66839 0.19915 -5.49293e-19)
(0.195308 1.34166 0)
(0.368215 2.0591 -6.52304e-19)
(0.489597 2.04266 1.10478e-18)
(0.980984 0.0145599 0)
(0.93871 0.00710565 0)
(1.00054 -0.00514881 0)
(0.979664 0.0323419 0)
(0.996517 0.0281471 -2.37721e-18)
(1.00011 0.0428877 1.80039e-18)
(0.00990223 1.73745 0)
(0.0109778 1.70573 0)
(-0.003719 1.74519 0)
(0.0185811 1.73161 0)
(0.00525478 1.69925 0)
(0.374559 0.430728 1.2701e-19)
(0.500966 0.38096 0)
(1.00149 0.0261646 0)
(0.969343 0.0181455 0)
(0.938165 -0.000425665 0)
(0.906576 0.0273879 0)
(0.906867 0.00975449 0)
(1.10386 -0.00929882 0)
(0.842365 0.0632439 0)
(0.781335 0.0206325 1.2596e-18)
(-0.0031479 2.82477 1.70645e-19)
(0.047698 2.93844 0)
(0.0527241 2.90581 0)
(-0.00337662 2.74153 0)
(-0.041424 2.98413 4.89599e-19)
(-0.0394382 2.89359 0)
(-0.0283884 2.98885 -1.59324e-18)
(-0.0187545 2.93473 5.44633e-19)
(0.0102144 1.76475 0)
(0.00726414 1.76063 0)
(-0.0142109 1.71967 -4.05529e-22)
(0.00313162 1.72238 0)
(0.00304532 1.67016 0)
(0.993729 0.00920217 0)
(0.974221 -0.00332946 0)
(0.942408 -0.00930778 0)
(0.993468 0.0124507 0)
(0.964047 0.018888 0)
(0.64883 0.923629 -4.78607e-20)
(0.441159 0.798524 0)
(0.735533 0.963205 1.56065e-20)
(0.617574 0.790685 0)
(1.12432 1.38353 -1.76398e-19)
(1.26398 1.06731 3.27709e-19)
(0.570742 2.06392 0)
(0.746664 1.97632 0)
(0.778 1.97513 0)
(0.559398 1.19428 -3.43215e-19)
(0.631792 0.314642 0)
(0.616973 0.247598 1.42301e-19)
(1.19715 1.12501 0)
(1.23635 0.924203 0)
(1.28066 0.849394 -2.4507e-19)
(1.2517 0.708536 0)
(1.32158 0.468343 5.42888e-20)
(0.992624 0.00665213 0)
(0.988014 -0.0069462 0)
(0.964832 -0.0152511 0)
(0.982759 0.0123636 0)
(0.991089 0.000811346 0)
(0.954876 0.0143527 0)
(0.994593 0.00262151 0)
(0.986571 0.00113406 0)
(0.997017 0.00233977 0)
(-0.000217631 1.65655 2.73191e-19)
(0.0495066 1.58952 0)
(-0.014433 1.64288 2.17028e-19)
(0.0012623 1.61462 -3.89823e-19)
(0.169942 1.94786 -5.3313e-19)
(0.0365716 1.84386 0)
(0.0982082 1.85212 0)
(0.000600645 1.76405 0)
(-0.0356306 1.70874 0)
(0.00360083 1.71394 -1.17298e-21)
(0.00756611 1.66573 0)
(-0.00879744 1.71823 -5.94606e-20)
(0.00365781 1.6919 -8.11124e-21)
(-0.0169339 1.76001 0)
(0.0176927 1.74072 0)
(0.00382003 1.70601 0)
(-0.00153122 1.7338 0)
(0.00321338 1.68969 0)
(1.016 0.0148341 0)
(1.00269 0.0175221 0)
(1.00794 0.00282776 0)
(0.971403 0.00485484 0)
(0.950956 -0.0141456 0)
(0.980902 0.00112329 0)
(0.959153 0.0169555 0)
(0.941433 -0.00285441 0)
(0.0188346 3.05324 -4.62933e-21)
(0.0196832 3.05509 0)
(0.000157457 2.97021 0)
(-0.00696014 2.89018 0)
(0.620364 3.45859 0)
(0.884552 2.71595 7.46568e-19)
(0.0506763 3.05955 0)
(-0.0139161 2.89702 0)
(0.000124569 1.74485 0)
(0.00592523 1.73795 0)
(0.000825367 1.74226 0)
(0.00201331 1.7828 4.53885e-21)
(-0.00613637 1.74649 0)
(-0.00352305 1.76869 0)
(-0.0128667 1.67593 -5.60501e-21)
(0.00723753 1.72916 4.58896e-20)
(0.0147192 1.73848 2.56968e-20)
(0.0319937 1.69091 0)
(0.767093 0.12764 4.50709e-19)
(0.733588 0.0728193 -4.35734e-19)
(0.16857 1.40305 0)
(0.257033 1.33163 -2.15217e-19)
(0.1382 1.43355 -6.26687e-19)
(0.14874 1.40562 6.26158e-19)
(0.963352 -0.01444 0)
(0.977137 -0.00999724 0)
(0.971813 -0.00788089 0)
(0.948048 0.00781991 0)
(0.000999481 1.72732 0)
(-0.00357063 1.74361 0)
(-0.0113591 1.70112 0)
(0.554754 0.361349 3.09626e-19)
(0.530602 0.38167 -3.08523e-19)
(0.507593 0.355576 0)
(1.19678 0.0860544 2.3927e-20)
(1.20734 0.0381139 0)
(1.12529 0.0384413 0)
(1.051 0.0102924 0)
(0.78635 0.101275 0)
(0.81354 0.0523944 -2.02197e-18)
(0.759614 0.0279526 7.66912e-19)
(0.00630682 2.97018 2.94067e-19)
(-0.0322439 2.83572 5.8792e-20)
(0.00443858 3.0516 -1.0919e-20)
(0.0132569 3.0356 4.36218e-19)
(-0.0181861 3.00226 1.80112e-20)
(-0.00963796 2.95545 -7.42724e-23)
(-0.0155718 3.01129 -3.57616e-19)
(0.0142552 3.02282 2.61876e-19)
(0.00929195 3.03086 -4.38786e-19)
(1.00652 0.0176386 0)
(1.00365 0.00851082 0)
(0.959936 0.0303347 0)
(0.987283 -0.0182105 0)
(0.984053 -0.00082975 0)
(0.9564 -0.012939 0)
(0.978181 0.00444013 0)
(0.983122 0.00484139 0)
(0.954521 0.0125256 0)
(0.592901 1.03549 1.69677e-19)
(0.477 1.08809 0)
(0.639231 1.05555 9.69751e-20)
(0.672479 1.18067 6.97485e-19)
(0.701395 1.07698 -3.73837e-19)
(0.652557 0.936927 6.99804e-19)
(0.467638 1.31249 1.66431e-18)
(0.489396 1.2026 3.33406e-19)
(0.692401 0.242555 -5.76088e-19)
(0.670653 0.275561 1.40487e-19)
(0.658448 0.220084 2.79096e-19)
(1.26638 0.504461 7.97277e-20)
(1.30735 0.348081 7.7231e-20)
(0.0129653 1.67298 1.84258e-19)
(0.0270593 1.65096 0)
(1.06878 0.0247826 0)
(1.04831 0.0101782 0)
(1.01988 -0.00788781 0)
(0.0311565 3.06438 0)
(-0.0097563 2.9685 6.39701e-19)
(-0.0106516 2.96339 0)
(-0.0204628 2.88638 -6.41402e-19)
(0.0336944 3.08352 1.35837e-19)
(0.0313428 3.07388 0)
(0.564311 1.30991 -1.55967e-19)
(0.868638 1.9189 3.37034e-19)
(0.500958 1.44091 -9.48176e-19)
(0.0404046 2.97464 -1.65252e-19)
(0.0487308 2.99998 0)
(0.00563272 2.84006 0)
(0.00904397 1.73073 -4.72655e-21)
(-0.0194969 1.73809 -2.12697e-21)
(0.00304666 1.71119 -4.88395e-21)
(0.244468 1.39228 6.77387e-19)
(0.33608 1.30956 -4.71461e-19)
(0.0397658 1.60835 4.33682e-19)
(0.0804369 1.51771 -5.2253e-19)
(0.0858169 1.49635 5.67179e-20)
(0.0269987 3.09776 -8.08647e-19)
(0.0330043 3.10468 9.05755e-19)
(-0.0321878 2.97311 4.32697e-19)
(-0.0284952 2.95867 -3.41267e-19)
(-0.0477847 2.85414 -4.40763e-19)
(0.0291297 3.07901 -1.00892e-18)
(0.0269546 3.09454 1.15674e-18)
(0.56661 1.28845 0)
(0.626883 1.24662 -1.6288e-18)
(0.620118 1.13862 7.31595e-19)
(0.436511 1.30162 9.28649e-19)
(0.468906 1.23844 -1.44561e-18)
(1.26247 0.172559 5.14829e-20)
(1.2744 0.313348 0)
(1.28926 0.140822 3.80702e-21)
(-0.00910788 1.70004 -1.67013e-21)
(0.00637647 1.70573 0)
(-0.00952113 1.66268 0)
(0.311691 1.36896 -2.41366e-19)
(0.376758 1.35095 -5.79599e-19)
(0.391758 1.27632 1.05937e-18)
(1.00542 -0.0388442 0)
(1.00925 -0.064169 4.43531e-19)
(-0.001337 1.7652 0)
(-0.00792223 1.77332 0)
(1.01582 0.0111663 1.18764e-20)
(0.980086 0.011927 9.21192e-19)
(0.0119683 1.78098 -6.03143e-21)
(0.0148017 1.78171 0)
(0.067994 3.21855 -1.70779e-19)
(0.200239 3.35539 0)
(1.06614 0.691129 -7.57938e-20)
(1.01185 -0.0141339 -4.49933e-21)
(1.01379 0.0141854 0)
(1.0167 -0.00536615 -3.9676e-21)
(0.0654601 1.85507 0)
(0.0391594 1.6835 0)
(-0.00965603 1.78878 0)
(0.0211703 1.74752 9.25748e-20)
(0.0182176 1.75907 4.55992e-20)
(0.988081 -0.00376552 3.22969e-22)
(1.04667 0.00780728 0)
(1.06056 0.0245245 0)
(0.00943168 1.74353 0)
(-0.021088 1.78104 0)
(-0.00560097 1.78053 0)
(0.261586 1.96209 -2.41709e-19)
(0.971457 -0.0284531 0)
(0.979188 -0.0265301 0)
(1.01714 -0.00704749 5.76253e-19)
(1.03206 -0.00978048 -6.69197e-19)
(1.02629 -0.0157755 0)
(-0.00753997 1.75133 0)
(0.00433187 1.75734 0)
(0.000670526 1.74427 0)
(-0.00763592 1.78224 0)
(-0.00284768 1.77423 0)
(-0.00965054 1.77658 0)
(1.02327 0.00876218 0)
(1.01747 -0.0146421 -3.92124e-21)
(0.785836 1.60228 3.12222e-19)
(1.01248 -0.00919859 -5.67271e-19)
(1.0401 0.0201215 6.90385e-19)
(1.00852 0.00211288 0)
(1.01003 -0.00643127 5.48577e-19)
(0.987296 0.0181132 -6.8041e-19)
(0.995108 0.0178961 0)
(-0.0092508 1.7826 0)
(0.00644236 1.77341 1.56678e-20)
(0.00338324 1.77785 -1.06616e-20)
(1.17389 0.272588 5.14889e-19)
(1.09805 0.0615037 0)
(0.161355 3.11433 -2.9785e-19)
(0.0713975 2.88173 -3.5048e-20)
(0.123115 3.25203 -1.42433e-19)
(0.103952 3.25145 1.29718e-19)
(0.101775 3.25383 0)
(0.0246562 3.16134 2.20477e-20)
(0.0777018 3.16245 3.01655e-19)
(0.085293 3.21599 -6.75569e-20)
(0.0767304 3.11429 0)
(0.693669 0.329089 0)
(0.611347 0.402796 0)
(1.04595 0.708889 1.93113e-19)
(1.12333 0.848172 8.88934e-20)
(1.09536 0.580362 0)
(1.16905 0.520779 0)
(1.02257 -0.00237667 -1.05847e-18)
(1.0156 -0.00908044 1.80659e-21)
(1.0191 0.0189572 0)
(1.01315 -0.00109362 0)
(0.996812 0.0185089 0)
(1.01808 -0.0088138 0)
(1.01226 -0.00639357 0)
(1.03075 -0.0281666 0)
(1.02086 -0.00337611 0)
(1.02252 0.0131715 0)
(0.0656213 1.85434 0)
(0.0368882 1.85669 0)
(0.0686341 1.87352 0)
(0.0652027 1.89771 0)
(0.0682809 1.65816 0)
(0.0850379 1.66835 -2.92966e-19)
(0.0277 1.7074 0)
(0.0340736 1.69985 1.58658e-19)
(0.0111927 1.75024 -1.6339e-19)
(-0.0148365 1.78324 0)
(-0.0169208 1.77758 0)
(0.0152299 1.79426 0)
(0.00947557 1.80454 0)
(0.00240921 1.74199 -5.90598e-20)
(0.0242519 1.75067 5.91269e-20)
(0.0164015 1.76346 7.40232e-20)
(0.0275664 1.76831 0)
(0.000849158 1.77164 -1.05547e-19)
(-0.00748617 1.76736 -6.04272e-20)
(0.00388331 1.73557 4.46905e-20)
(0.020018 1.74094 -7.53919e-20)
(0.0206244 1.75842 -8.56476e-20)
(0.996611 -0.000840023 9.87128e-19)
(1.00642 -0.00371435 -4.91663e-21)
(0.992491 0.00633591 -1.00219e-18)
(0.952127 -0.00591842 1.30181e-18)
(1.0385 -0.010051 0)
(1.05058 -0.0123516 0)
(1.03904 0.0210552 0)
(1.05844 0.0301961 0)
(1.05971 0.0279571 0)
(1.07205 0.0541311 0)
(1.07233 0.0384495 0)
(1.08084 0.0404193 0)
(0.000753308 1.75813 -2.85743e-21)
(0.0215008 1.73687 0)
(0.0133864 1.74057 0)
(-0.0208549 1.77931 2.09546e-20)
(-0.0270653 1.786 -5.19062e-22)
(-0.00957392 1.73061 8.41548e-21)
(-0.00670647 1.75951 -8.53886e-21)
(0.0136831 1.76714 0)
(0.0072864 1.75951 0)
(-0.00054468 1.76168 0)
(-0.00263261 1.77774 0)
(-0.0116519 1.77358 0)
(0.410058 1.93866 3.73704e-19)
(0.415318 1.94975 1.99381e-19)
(0.26903 1.50604 -1.65307e-19)
(0.156203 1.52786 4.435e-19)
(0.312501 1.65163 1.06691e-19)
(1.0086 -0.00258883 0)
(0.992324 -0.00798789 0)
(1.00648 0.0132176 0)
(1.02308 -0.0168982 0)
(1.00857 -0.016788 0)
(0.989506 -0.00572638 0)
(0.972181 0.0546765 0)
(1.02319 0.0660487 0)
(1.00674 -0.00346037 1.00332e-18)
(1.01704 0.0129262 -1.25866e-18)
(1.01468 -0.0168248 -9.74376e-19)
(1.00753 -0.0098875 1.25525e-18)
(0.781648 1.67827 0)
(0.692906 1.7659 2.8519e-19)
(0.880539 1.48269 8.04373e-20)
(0.907239 1.45654 -1.06621e-19)
(0.898587 1.7373 2.19822e-19)
(0.854459 0.120595 4.79265e-19)
(1.1147 0.0953656 0)
(1.13709 0.154778 -4.16759e-19)
(1.13123 0.126751 -1.76023e-20)
(0.956602 0.148773 0)
(0.149059 3.22161 -6.52332e-19)
(0.240286 3.0162 -1.44121e-20)
(0.246935 2.30559 2.39214e-19)
(0.349536 0.375315 3.33334e-20)
(0.125887 3.34664 -5.59039e-19)
(0.100182 3.29997 0)
(0.122386 3.2717 6.54906e-19)
(0.112042 3.22606 1.35556e-18)
(0.140873 3.26189 0)
(0.0146317 3.11483 1.90421e-20)
(0.0361008 3.12353 -2.59725e-19)
(0.0353282 3.11695 3.82451e-19)
(0.0473461 3.14222 0)
(0.0532459 3.16497 0)
(0.875056 1.9856 0)
(0.125241 0.669018 -2.19622e-19)
(1.07265 1.15468 3.75529e-20)
(0.943144 1.23056 0)
(0.72104 1.09174 -1.5878e-19)
(0.967042 0.995836 2.86732e-20)
(0.585192 0.542651 4.82765e-20)
(0.68913 0.329488 -1.76075e-20)
(0.682528 0.323256 2.9824e-19)
(0.609529 0.398168 1.43423e-20)
(0.600776 0.40145 -5.71362e-19)
(0.695763 0.343079 0)
(0.677424 0.394108 4.23622e-19)
(0.681264 0.388351 0)
(0.629096 0.386305 0)
(0.642044 0.34668 0)
(0.649636 0.660226 3.35269e-19)
(1.17435 0.294508 -4.76239e-20)
(1.17537 0.387226 0)
(1.17505 0.375096 0)
(0.782429 0.232104 4.82147e-19)
(0.706157 0.514009 -2.7857e-19)
(0.680069 0.4678 -5.00456e-19)
(0.846903 0.417855 -5.6489e-19)
(1.00881 0.0269222 6.78335e-19)
(1.01624 0.00499814 -7.178e-19)
(1.01118 0.0282874 0)
(1.01751 -0.00115615 0)
(1.02383 -0.0292755 -6.54161e-19)
(1.01952 -0.0170894 6.33218e-19)
(1.00051 -0.00521572 0)
(0.997019 -0.00626971 0)
(1.01813 -0.00851404 0)
(1.01897 -0.00879367 0)
(1.00246 -0.0185427 0)
(0.999768 -0.0018398 0)
(0.0252656 1.84791 0)
(0.0194219 1.83615 0)
(0.0497611 1.80777 4.62541e-20)
(0.255768 1.93381 1.22016e-19)
(0.0900187 1.91009 2.57217e-19)
(0.120593 1.9377 -1.2464e-19)
(0.12121 1.83722 0)
(0.147251 1.75635 -1.01147e-19)
(0.135386 1.79257 0)
(0.288636 1.69909 -1.54075e-19)
(0.230236 1.6464 4.89601e-19)
(0.168041 1.76682 8.77627e-20)
(0.260666 1.88647 3.80162e-20)
(0.199802 1.83975 3.07537e-20)
(0.341737 1.76932 -9.71531e-20)
(0.252441 1.72283 1.22226e-19)
(0.283012 1.73243 8.91524e-20)
(0.0175246 1.73396 -4.83665e-20)
(0.028504 1.74578 0)
(0.0853852 1.72482 1.81182e-19)
(0.0339563 1.72854 0)
(0.0521058 1.72365 -1.85081e-19)
(0.0449368 1.74781 0)
(0.0212087 1.76864 -4.09863e-20)
(-0.00240617 1.77504 0)
(0.0173764 1.76135 0)
(0.0328951 1.76152 4.56345e-20)
(0.0129623 1.7529 -4.1308e-21)
(0.00580749 1.75642 1.8669e-19)
(0.0125748 1.75348 1.31338e-21)
(0.0199793 1.72821 3.81061e-20)
(-0.015282 1.73711 -2.70472e-20)
(-0.00607319 1.77815 0)
(0.0102059 1.77059 0)
(0.0156674 1.74646 1.25016e-19)
(0.0174897 1.74596 1.00283e-19)
(-0.00549403 1.7577 -1.40518e-19)
(0.0192668 1.75166 0)
(-0.0158377 1.76929 -4.61433e-20)
(0.0042659 1.77382 2.78535e-20)
(0.0248527 1.76933 -1.09926e-20)
(0.029164 1.72658 -4.72178e-20)
(-0.0115532 1.74221 -1.87192e-20)
(-0.00609458 1.75482 7.02762e-20)
(1.01045 0.00474572 -6.86087e-19)
(0.999802 0.0292489 6.54907e-19)
(1.00133 0.0294215 0)
(0.976136 0.0300513 8.98308e-19)
(0.937456 0.0488009 -1.04779e-18)
(0.926162 0.0485991 1.17484e-18)
(0.967201 0.0249027 -1.19592e-19)
(1.03877 -0.00642802 0)
(1.04338 -0.0222925 6.2664e-19)
(1.03269 -0.0237307 -6.42386e-19)
(0.989293 0.0265121 -3.57238e-20)
(1.01447 0.0218493 2.99818e-19)
(0.987084 0.057418 0)
(0.988253 0.0462357 -1.12435e-19)
(1.00979 0.050374 0)
(0.997956 0.0416093 0)
(1.00982 0.0237767 0)
(1.00857 0.019812 0)
(1.02191 0.0432596 2.22477e-19)
(1.00042 0.00152233 -4.98558e-19)
(0.944963 0.00414497 -2.39162e-19)
(0.977983 0.0206344 -2.62387e-19)
(0.995261 0.0655412 5.17348e-19)
(1.04414 0.0693613 0)
(1.01538 0.0651443 0)
(-0.0225667 1.7657 -3.7192e-20)
(-0.0219768 1.75763 -2.23354e-21)
(-0.0230379 1.76351 0)
(-0.0104014 1.77946 3.69652e-20)
(0.0168974 1.76307 4.90154e-21)
(0.00543355 1.77313 -4.71825e-21)
(0.00648201 1.77133 4.98039e-20)
(0.0289259 1.75665 -3.36946e-21)
(0.00592742 1.73818 2.0778e-20)
(-0.0185436 1.79145 -3.15943e-20)
(0.00237376 1.77518 -5.4529e-21)
(0.0253145 1.73887 -5.89576e-22)
(-0.00744951 1.71287 1.12824e-20)
(0.38703 1.81118 -1.42001e-19)
(0.345921 1.7747 1.20553e-19)
(0.690555 1.81348 -2.75954e-19)
(0.556238 1.89928 -1.92099e-19)
(0.580131 1.87462 0)
(0.311408 1.51025 1.66205e-19)
(0.339308 1.51214 2.38613e-19)
(0.182352 1.53521 4.0035e-20)
(0.206928 1.53051 -5.90484e-19)
(0.225435 1.52723 4.82168e-19)
(0.240168 1.5297 0)
(0.182406 1.52624 -3.78235e-19)
(0.130445 1.6218 7.65379e-19)
(0.174967 1.57833 -4.56187e-20)
(0.124526 1.61725 -1.03706e-18)
(0.596974 1.47071 9.9297e-19)
(0.491639 1.47913 0)
(1.02019 -0.00335958 2.04605e-20)
(1.03144 0.061831 -1.76638e-20)
(1.00298 -0.000262245 -3.19061e-19)
(0.99955 0.00427251 3.28741e-19)
(0.999773 0.0266494 0)
(0.648548 1.64457 0)
(0.576585 1.51342 0)
(0.715346 1.3107 0)
(0.527134 1.46187 0)
(0.896681 1.6858 1.25543e-19)
(0.958374 1.56485 0)
(0.623222 1.63651 6.88519e-21)
(0.490886 1.57746 0)
(0.566788 1.5335 -6.85911e-19)
(0.591865 1.5613 0)
(0.862787 0.138823 0)
(0.828505 0.144282 1.32284e-19)
(0.897352 0.094466 7.53041e-19)
(0.858623 0.107908 -2.75622e-19)
(0.855986 0.0763326 -8.74233e-19)
(0.98252 0.196547 -7.29342e-19)
(0.920702 0.265561 -1.84322e-20)
(0.83192 0.26495 6.52116e-19)
(0.92334 0.219106 6.06975e-19)
(0.911832 0.122511 -9.74362e-19)
(0.886757 0.175644 1.20796e-19)
(0.815507 0.250337 -2.74182e-19)
(0.876553 0.214751 0)
(0.954509 0.156291 -4.92962e-19)
(0.949562 0.162362 0)
(0.945132 0.2188 0)
(1.0553 0.137748 2.42628e-19)
(0.962608 0.175958 -6.21201e-21)
(0.977099 0.179099 -3.91801e-19)
(1.00173 0.200385 0)
(1.00575 0.0525431 4.97514e-19)
(1.00579 0.0387227 6.2166e-19)
(1.01103 0.0551701 -4.86544e-19)
(1.01169 0.0555565 -4.23638e-19)
(0.975242 0.0591464 -6.44425e-19)
(0.961287 0.101675 0)
(0.958285 0.0286927 0)
(0.920493 0.0775912 -4.09204e-19)
(0.911089 0.0677441 1.53089e-19)
(1.00876 0.0724336 5.63254e-19)
(0.993153 0.0900865 -6.85397e-19)
(0.980327 0.110442 6.15173e-19)
(0.969072 0.118036 0)
(0.982935 0.0740265 0)
(0.988839 0.0691571 -2.85522e-19)
(1.00051 0.0786233 -4.63927e-19)
(0.496217 1.65097 2.83378e-19)
(0.515057 1.81095 -3.15847e-19)
(0.773762 1.91692 -3.2932e-19)
(0.738216 2.41338 -2.8996e-22)
(0.913226 1.91945 -7.67619e-20)
(0.906144 1.99809 -1.62018e-19)
(0.955008 1.63205 -1.06185e-20)
(0.748782 2.23641 -1.0809e-19)
(0.830452 2.10528 3.14385e-19)
(0.734377 2.6367 -1.45493e-19)
(0.928997 2.28716 1.76325e-19)
(0.905917 2.31103 0)
(0.0838555 0.812201 -5.01965e-20)
(0.22305 1.83169 -3.03069e-19)
(0.842756 0.379591 8.06058e-20)
(0.681126 0.313307 7.50665e-20)
(0.589449 0.413586 3.17019e-19)
(0.58901 0.402714 -4.22116e-19)
(0.563172 0.385874 2.79309e-19)
(0.624396 0.400246 -8.25424e-20)
(0.571863 0.430816 3.28584e-19)
(0.780934 0.262178 8.2504e-19)
(0.71745 0.304193 0)
(0.744608 0.257645 9.72006e-21)
(0.602865 0.461061 2.22996e-19)
(0.613661 0.425936 -8.21107e-19)
(0.573475 0.388234 -1.40017e-20)
(0.590294 0.416233 0)
(0.36597 0.819346 3.05488e-19)
(0.665149 0.876723 4.40958e-19)
(0.551393 0.899135 -5.02888e-19)
(0.676977 0.890864 -1.67588e-19)
(0.816726 0.913785 -5.13663e-20)
(0.808081 0.936482 5.18512e-20)
(0.770098 0.607677 -5.74536e-19)
(0.785736 0.714589 1.56251e-19)
(0.882103 0.777135 0)
(0.855573 0.73277 -1.94469e-19)
(0.924483 0.307079 1.7644e-19)
(1.06394 0.290554 2.46009e-19)
(1.02406 0.240463 2.93194e-19)
(0.895522 0.400316 -3.64055e-19)
(0.99597 0.384621 0)
(0.993416 0.390949 0)
(0.845994 0.347271 1.24701e-20)
(0.771423 0.290502 0)
(0.786583 0.288308 3.14953e-19)
(0.865686 0.275577 -2.01547e-20)
(0.841082 0.409807 1.52623e-18)
(0.8113 0.464546 4.3828e-19)
(0.81731 0.433479 -4.26009e-19)
(0.742883 0.380712 -4.55316e-19)
(0.729906 0.398557 2.60094e-19)
(0.692089 0.413793 -2.52259e-19)
(0.981652 0.0301051 5.66977e-19)
(0.996838 -0.0230048 0)
(1.01428 -0.00655004 3.64932e-19)
(0.98906 0.0124639 2.70387e-21)
(1.01174 -0.00920419 3.9123e-19)
(1.01702 0.035084 -8.49554e-19)
(1.00772 -0.00119454 0)
(0.989757 -0.0209808 -1.74261e-19)
(1.00744 0.0254636 4.49963e-19)
(0.991941 0.0135768 -2.30938e-19)
(0.985102 -0.0191811 1.66954e-19)
(0.0191099 1.80593 0)
(0.0197855 1.76896 0)
(0.0159556 1.82618 0)
(0.0156371 1.8153 0)
(0.0663978 1.75925 7.90747e-20)
(0.065537 1.76931 -4.82077e-20)
(0.0880868 1.78217 -2.02203e-20)
(0.0589464 1.75858 -4.97262e-20)
(0.0460931 1.75974 -8.08736e-20)
(0.0406703 1.76904 6.09333e-20)
(0.0533061 1.77968 -3.72244e-20)
(0.0378621 1.79801 3.94407e-21)
(0.0251538 1.77447 -1.07117e-21)
(0.0121732 1.76532 9.16123e-21)
(0.0843264 1.72875 -1.98652e-19)
(0.0753959 1.71827 0)
(0.0850107 1.70013 1.17643e-19)
(0.110109 1.78263 6.86243e-20)
(0.191561 1.68408 -9.09985e-20)
(0.171896 1.65257 0)
(0.193187 1.61812 -5.49586e-19)
(0.226644 1.64381 3.71767e-19)
(0.121537 1.69871 -3.17216e-19)
(0.10069 1.67148 1.34493e-19)
(0.0738502 1.64047 0)
(0.0145375 1.74029 -1.42949e-19)
(0.0125587 1.75216 -1.75964e-19)
(0.00659718 1.73494 0)
(0.0109618 1.74783 -4.38097e-21)
(0.00765395 1.73302 7.10426e-20)
(0.00162936 1.78668 1.59519e-21)
(0.00494331 1.78509 -2.52459e-20)
(-0.00398176 1.78082 -1.31576e-20)
(-0.0063033 1.76727 3.35024e-20)
(0.024906 1.77726 0)
(0.00313206 1.78861 0)
(-0.012317 1.77311 2.10324e-20)
(-0.00709737 1.78533 -6.91763e-21)
(-0.000200637 1.78877 0)
(0.00899042 1.77518 1.61729e-20)
(-0.0100212 1.77144 -3.19498e-20)
(0.969786 0.0313662 0)
(1.01977 0.0656484 -5.70173e-20)
(1.01703 -0.00433818 -3.77524e-19)
(0.97182 0.00310819 0)
(1.0187 0.0300281 0)
(1.01101 -0.0239021 -2.33404e-20)
(0.970491 -0.00147252 6.58988e-19)
(0.998108 0.00490851 7.80823e-19)
(0.995691 0.0198128 0)
(0.997454 0.00916044 0)
(0.99782 -0.00089223 3.98395e-19)
(1.00787 0.0115456 0)
(0.996957 0.0156549 0)
(0.0330759 1.76894 0)
(0.00277307 1.70724 -3.69242e-21)
(-0.0128631 1.77169 7.99624e-21)
(-0.0102356 1.76813 0)
(0.0118798 1.69166 2.19843e-20)
(0.0129664 1.72692 1.73466e-22)
(-0.00644849 1.7748 0)
(0.405872 1.67492 0)
(0.331964 1.72646 -2.62576e-19)
(0.353991 1.68908 0)
(0.475711 1.7629 3.87266e-20)
(0.47692 1.80601 0)
(0.436451 1.79353 -3.99351e-20)
(0.626821 1.52239 -2.06044e-20)
(0.662851 1.48142 -1.19089e-18)
(0.714632 1.47565 1.32225e-18)
(0.503134 1.4934 2.69993e-19)
(0.509054 1.52549 0)
(0.520474 1.50854 0)
(0.562981 1.49183 0)
(0.514904 1.48201 -1.0108e-18)
(0.360023 1.54602 -5.07501e-19)
(0.460214 1.52156 -1.29386e-19)
(0.474669 1.53057 1.06521e-19)
(0.380868 1.49858 0)
(0.469479 1.49232 0)
(0.424829 1.49534 -2.91468e-19)
(0.439621 1.52851 0)
(0.402498 1.46859 0)
(0.0141147 1.4929 -6.48359e-19)
(0.23374 1.10155 -5.20266e-20)
(0.383134 1.62632 0)
(0.186438 1.66887 1.04538e-18)
(0.610354 0.9857 -1.71819e-19)
(0.655448 1.18975 0)
(0.664229 1.126 2.63999e-19)
(0.3917 1.29832 0)
(0.413544 1.1645 0)
(0.865556 1.71478 -3.08537e-19)
(0.786815 1.85797 -2.94923e-19)
(0.656311 1.75229 5.40106e-19)
(0.668472 1.7005 -1.49235e-19)
(0.89002 1.63207 0)
(0.818586 1.57369 2.19723e-19)
(0.952647 1.5151 -3.07418e-19)
(0.909003 1.48356 -1.81012e-20)
(0.573051 1.62053 0)
(0.522537 1.65844 -2.42623e-19)
(0.525738 1.62297 0)
(0.846587 0.214301 0)
(0.827186 0.155832 0)
(0.784775 0.185384 0)
(0.82716 0.222232 -4.94481e-19)
(0.786915 0.22527 2.90542e-19)
(0.909758 0.0542043 -3.13207e-19)
(0.927745 0.0775372 0)
(0.900615 0.0823816 1.4572e-19)
(0.870879 0.0467186 5.57312e-19)
(0.880466 0.0450983 -3.61152e-19)
(0.652514 2.88417 -6.16235e-19)
(0.685269 2.79567 0)
(0.704968 3.02891 -1.80765e-18)
(0.210873 3.29698 1.32724e-18)
(0.219855 3.02188 5.01045e-19)
(-0.198948 1.19051 1.45803e-19)
(-0.194654 1.52772 0)
(0.0278776 0.457908 1.68019e-20)
(0.170461 0.455796 -3.5665e-19)
(0.559365 0.156733 -5.37684e-20)
(0.655429 0.404534 -2.60473e-20)
(0.612953 0.444528 2.29993e-19)
(0.609248 0.456512 0)
(0.514109 0.449454 0)
(0.574256 0.373603 0)
(0.896633 0.610141 1.05267e-19)
(0.793581 0.481697 -4.26622e-19)
(0.803122 0.562706 3.68462e-19)
(0.858528 0.478968 -3.32839e-19)
(1.05037 0.452091 0)
(1.05508 0.546542 -9.53344e-20)
(0.751829 0.351187 -6.09479e-19)
(0.747054 0.344793 1.01355e-18)
(0.700585 0.394139 4.88986e-19)
(0.738632 0.336102 -4.80249e-19)
(0.763908 0.298322 -3.85466e-19)
(0.751318 0.314729 4.73154e-19)
(1.01515 -0.00634864 -4.08846e-19)
(1.01931 0.000147299 8.45726e-19)
(0.997795 0.0443465 5.43195e-19)
(1.00569 0.0439719 -6.43587e-19)
(0.956927 0.0200543 0)
(0.955251 -0.00586697 -1.05088e-18)
(0.0476598 1.76278 2.64088e-20)
(0.0313102 1.73497 0)
(0.0679863 1.77318 2.33408e-19)
(0.0889098 1.77843 -1.97672e-19)
(0.0555749 1.73047 3.75453e-20)
(0.0372 1.70618 0)
(0.0418316 1.73867 0)
(0.0135746 1.78226 -4.46764e-22)
(-0.00128873 1.75406 4.00275e-22)
(0.0146152 1.71254 -4.96828e-21)
(0.0512502 1.75379 -1.4023e-20)
(0.0264505 1.73692 -1.40583e-20)
(0.519072 1.611 -6.78709e-19)
(0.486713 1.62766 -7.67867e-19)
(0.492679 1.71165 -1.62773e-19)
(0.480203 1.66411 2.8715e-20)
(0.652497 1.66983 0)
(0.578961 1.76213 7.66326e-20)
(0.614265 1.71651 -7.38786e-20)
(0.519158 1.74137 1.57423e-19)
(0.576843 1.6402 0)
(0.57391 1.63743 0)
(0.359635 1.52783 7.7923e-19)
(0.363108 1.47835 1.22898e-18)
(0.405891 1.51588 -8.37714e-19)
(0.284895 1.51838 -1.49636e-19)
(0.30111 1.52431 2.57439e-19)
(0.224283 1.52037 -6.24905e-19)
(0.770976 1.47602 -7.37362e-19)
(0.860264 1.47417 0)
(0.817516 1.47364 -7.29203e-19)
(0.750134 1.52802 0)
(0.71222 1.51403 0)
(-0.0544211 2.6857 5.46746e-20)
(0.404355 2.65418 1.10348e-19)
(0.263435 2.88924 -2.26998e-19)
(0.122811 1.70582 0)
(-0.090679 1.33667 5.95558e-20)
(-0.232652 1.36261 -1.0384e-19)
(-0.0933213 2.69816 0)
(-0.030127 2.98536 -3.66384e-19)
(0.00505607 2.97317 0)
(0.403193 0.55867 -6.53278e-19)
(0.596189 0.708323 8.87867e-19)
(0.647907 0.647659 4.82157e-19)
(0.487913 0.496209 7.09984e-20)
(0.605013 0.480804 -2.87595e-19)
(0.354921 2.51032 -8.20945e-20)
(0.427232 2.26517 -1.96021e-19)
(-0.0146524 2.49088 5.33906e-19)
(-0.0465059 2.2603 -4.22388e-19)
(0.489206 1.96214 -6.91607e-19)
(0.530902 2.10179 -1.9952e-19)
(0.591684 1.85456 4.59517e-19)
(0.173608 2.21953 3.53224e-20)
(0.366428 2.06889 8.98964e-19)
)
;

boundaryField
{
    wall-4
    {
        type            noSlip;
    }
    velocity-inlet-5
    {
        type            fixedValue;
        value           uniform (1 0 0);
    }
    velocity-inlet-6
    {
        type            fixedValue;
        value           uniform (0 3 0);
    }
    pressure-outlet-7
    {
        type            zeroGradient;
    }
    wall-8
    {
        type            noSlip;
    }
    frontAndBackPlanes
    {
        type            empty;
    }
}


// ************************************************************************* //
