/*--------------------------------*- C++ -*----------------------------------*\
| =========                 |                                                 |
| \\      /  F ield         | OpenFOAM: The Open Source CFD Toolbox           |
|  \\    /   O peration     | Version:  2412                                  |
|   \\  /    A nd           | Website:  www.openfoam.com                      |
|    \\/     M anipulation  |                                                 |
\*---------------------------------------------------------------------------*/
FoamFile
{
    version     2.0;
    format      ascii;
    arch        "LSB;label=32;scalar=64";
    class       volScalarField;
    location    "5";
    object      p;
}
// * * * * * * * * * * * * * * * * * * * * * * * * * * * * * * * * * * * * * //

dimensions      [0 2 -2 0 0 0 0];

internalField   nonuniform List<scalar> 
38
(
0.237873
0.213042
0.186449
0.162993
0.151497
0.133224
0.211027
0.22233
0.136284
0.127977
0.0980424
0.0689396
-0.0526719
0.10632
0.149191
0.16967
0.140938
0.19553
0.181566
0.116626
0.0600495
0.161322
0.184039
0.188479
0.138118
0.209406
0.240674
0.0808803
0.0918263
0.0797059
0.102508
0.0915415
0.109789
0.0849044
0.124925
0.107591
0.0647453
0.0552477
)
;

boundaryField
{
    wall-4
    {
        type            zeroGradient;
    }
    velocity-inlet-5
    {
        type            zeroGradient;
    }
    velocity-inlet-6
    {
        type            zeroGradient;
    }
    pressure-outlet-7
    {
        type            fixedValue;
        value           nonuniform List<scalar> 0();
    }
    wall-8
    {
        type            zeroGradient;
    }
    frontAndBackPlanes
    {
        type            empty;
    }
    procBoundary14to12
    {
        type            processor;
        value           nonuniform List<scalar> 3(-0.09711 0.0383283 0.0487407);
    }
    procBoundary14to13
    {
        type            processor;
        value           nonuniform List<scalar> 6(0.116676 0.064484 0.0978409 0.112883 0.0763459 0.0731565);
    }
    procBoundary14to22
    {
        type            processor;
        value           nonuniform List<scalar> 6(0.274286 0.26197 0.146537 -0.0851902 0.233511 0.282126);
    }
}


// ************************************************************************* //
