/*--------------------------------*- C++ -*----------------------------------*\
| =========                 |                                                 |
| \\      /  F ield         | OpenFOAM: The Open Source CFD Toolbox           |
|  \\    /   O peration     | Version:  2412                                  |
|   \\  /    A nd           | Website:  www.openfoam.com                      |
|    \\/     M anipulation  |                                                 |
\*---------------------------------------------------------------------------*/
FoamFile
{
    version     2.0;
    format      ascii;
    arch        "LSB;label=32;scalar=64";
    class       surfaceScalarField;
    location    "5";
    object      phi;
}
// * * * * * * * * * * * * * * * * * * * * * * * * * * * * * * * * * * * * * //

dimensions      [0 3 -1 0 0 0 0];

oriented        oriented;

internalField   nonuniform List<scalar> 
48
(
5.10024
-0.157988
5.10024
5.15537
-0.0551324
5.15537
5.2612
-0.105831
6.53676
3.45324
6.37877
-7.84834
7.74251
9.55052
-8.38193
-1.16859
4.94559
4.60493
-1.19312
-6.79848
8.47293
-1.67445
-2.41829
-5.43005
9.21678
-0.893585
-8.32319
5.48518
1.03518
5.50058
-8.26342
-0.0597665
-4.81018
1.22313
-6.03332
5.82806
5.37755
5.4936
-3.38923
2.12434
-6.11888
-5.0837
4.36886
-6.04331
-4.07477
-6.10308
-0.275023
5.22556
)
;

boundaryField
{
    wall-4
    {
        type            calculated;
        value           nonuniform List<scalar> 0();
    }
    velocity-inlet-5
    {
        type            calculated;
        value           nonuniform List<scalar> 0();
    }
    velocity-inlet-6
    {
        type            calculated;
        value           nonuniform List<scalar> 0();
    }
    pressure-outlet-7
    {
        type            calculated;
        value           nonuniform List<scalar> 0();
    }
    wall-8
    {
        type            calculated;
        value           uniform 0;
    }
    frontAndBackPlanes
    {
        type            empty;
    }
    procBoundary14to12
    {
        type            processor;
        value           nonuniform List<scalar> 3(8.21083 1.15079 -0.554987);
    }
    procBoundary14to13
    {
        type            processor;
        value           nonuniform List<scalar> 6(5.2612 7.61793 3.99454 6.70734 -2.10437 8.44363);
    }
    procBoundary14to22
    {
        type            processor;
        value           nonuniform List<scalar> 6(-4.94225 -9.99 -7.1888 -9.40395 -6.54614 -0.655764);
    }
}


// ************************************************************************* //
