/*--------------------------------*- C++ -*----------------------------------*\
| =========                 |                                                 |
| \\      /  F ield         | OpenFOAM: The Open Source CFD Toolbox           |
|  \\    /   O peration     | Version:  2412                                  |
|   \\  /    A nd           | Website:  www.openfoam.com                      |
|    \\/     M anipulation  |                                                 |
\*---------------------------------------------------------------------------*/
FoamFile
{
    version     2.0;
    format      ascii;
    arch        "LSB;label=32;scalar=64";
    class       volVectorField;
    location    "5";
    object      U;
}
// * * * * * * * * * * * * * * * * * * * * * * * * * * * * * * * * * * * * * //

dimensions      [0 1 -1 0 0 0 0];

internalField   nonuniform List<vector> 
38
(
(0.00151784 1.66972 2.17577e-19)
(-0.00552832 1.62592 -3.90574e-19)
(-0.0162462 1.67588 1.82844e-19)
(-0.00387725 1.61911 0)
(0.00071954 1.67762 0)
(0.0143165 1.63128 0)
(0.0754605 1.72633 0)
(0.0370423 1.71496 1.57644e-19)
(0.0334921 1.75802 -1.61967e-19)
(0.151465 1.75105 -1.10512e-19)
(0.127707 1.77622 0)
(0.191507 1.78313 9.60327e-20)
(0.196283 1.86189 3.01256e-20)
(0.0391822 1.76726 -4.63672e-20)
(0.0204699 1.74394 0)
(0.0315376 1.72304 1.84079e-19)
(0.0337102 1.74033 0)
(0.015446 1.71866 -1.75176e-19)
(0.00277982 1.7296 0)
(0.0286311 1.77038 1.92572e-19)
(0.0885863 1.77839 -3.66642e-20)
(0.0408411 1.72408 -1.99665e-19)
(0.064816 1.7227 0)
(0.0792613 1.71787 1.2688e-19)
(0.0951386 1.7689 7.98416e-20)
(0.16535 1.72283 -3.1788e-19)
(0.124931 1.71307 1.30755e-19)
(0.0161535 1.75245 -5.53483e-21)
(0.00296478 1.75424 1.01975e-19)
(0.00526005 1.75283 0)
(0.0249781 1.75986 -4.31075e-21)
(0.0364089 1.7641 6.03381e-20)
(0.0485869 1.78402 2.70639e-20)
(0.0467963 1.76944 0)
(0.0581329 1.77097 2.47014e-19)
(0.066331 1.779 -2.23932e-19)
(0.0663483 1.78632 6.78456e-20)
(0.0529931 1.76738 0)
)
;

boundaryField
{
    wall-4
    {
        type            noSlip;
    }
    velocity-inlet-5
    {
        type            fixedValue;
        value           nonuniform List<vector> 0();
    }
    velocity-inlet-6
    {
        type            fixedValue;
        value           nonuniform List<vector> 0();
    }
    pressure-outlet-7
    {
        type            zeroGradient;
    }
    wall-8
    {
        type            noSlip;
    }
    frontAndBackPlanes
    {
        type            empty;
    }
    procBoundary14to12
    {
        type            processor;
        value           nonuniform List<vector> 3((0.180771 1.86652 0) (0.0288155 1.77733 6.70487e-20) (0.0765769 1.77956 -7.0727e-22));
    }
    procBoundary14to13
    {
        type            processor;
        value           nonuniform List<vector> 6((0.00554278 1.69813 -1.57842e-21) (-0.00187443 1.758 -5.07553e-20) (0.00602315 1.76651 -1.77451e-21) (0.0144557 1.77127 1.29243e-21) (0.0120763 1.75313 1.08556e-19) (0.0239212 1.76656 0));
    }
    procBoundary14to22
    {
        type            processor;
        value           nonuniform List<vector> 6((0.0304064 1.6088 -5.07182e-19) (0.0962466 1.69562 0) (0.222611 1.75345 1.06138e-19) (0.231767 1.85826 3.75227e-20) (0.18442 1.70766 -8.50091e-20) (0.105345 1.6826 0));
    }
}


// ************************************************************************* //
