/*--------------------------------*- C++ -*----------------------------------*\
| =========                 |                                                 |
| \\      /  F ield         | OpenFOAM: The Open Source CFD Toolbox           |
|  \\    /   O peration     | Version:  2412                                  |
|   \\  /    A nd           | Website:  www.openfoam.com                      |
|    \\/     M anipulation  |                                                 |
\*---------------------------------------------------------------------------*/
FoamFile
{
    version     2.0;
    format      ascii;
    arch        "LSB;label=32;scalar=64";
    class       volVectorField;
    location    "1";
    object      U;
}
// * * * * * * * * * * * * * * * * * * * * * * * * * * * * * * * * * * * * * //

dimensions      [0 1 -1 0 0 0 0];

internalField   nonuniform List<vector> 
38
(
(1.37085 0.786005 0)
(1.23385 1.21011 0)
(1.26926 0.952535 0)
(1.37699 1.0144 3.17659e-19)
(1.32433 0.753872 0)
(1.38186 0.611878 8.07326e-20)
(1.2833 0.553556 -6.28689e-19)
(1.33629 0.372889 -7.42105e-19)
(1.29869 0.366471 0)
(1.18032 0.634852 -4.19925e-19)
(1.08188 0.815284 1.22947e-18)
(1.14623 0.935284 -1.5435e-18)
(1.12102 0.580994 0)
(1.12857 0.616598 0)
(1.08966 1.17243 4.76185e-19)
(0.92716 1.41361 0)
(0.797293 1.14892 -4.93103e-19)
(1.02324 1.12089 5.91753e-20)
(0.602322 0.731814 1.10772e-18)
(1.19574 0.250582 -2.38002e-20)
(1.15257 0.44061 0)
(1.20561 0.278724 0)
(0.717816 0.9399 1.15183e-18)
(0.703523 0.950759 -5.11653e-19)
(0.912716 0.920212 -1.67441e-19)
(0.907457 1.0505 1.72062e-19)
(0.72279 0.673003 -1.84118e-18)
(0.763262 0.929464 4.81574e-19)
(0.962295 0.833657 0)
(0.86952 0.769728 -6.74574e-19)
(1.00462 0.376693 1.09693e-18)
(1.01452 0.369352 0)
(0.242501 0.775424 1.40542e-18)
(0.469596 0.901636 1.02521e-18)
(0.619469 0.9319 2.8766e-18)
(0.664775 0.737975 -2.74216e-18)
(0.331785 0.738346 -2.56639e-19)
(0.439678 0.710361 -1.01736e-18)
)
;

boundaryField
{
    wall-4
    {
        type            noSlip;
    }
    velocity-inlet-5
    {
        type            fixedValue;
        value           nonuniform List<vector> 0();
    }
    velocity-inlet-6
    {
        type            fixedValue;
        value           nonuniform List<vector> 0();
    }
    pressure-outlet-7
    {
        type            zeroGradient;
    }
    wall-8
    {
        type            noSlip;
    }
    frontAndBackPlanes
    {
        type            empty;
    }
    procBoundary6to7
    {
        type            processor;
        value           nonuniform List<vector> 2((0.550685 0.535428 0) (0.152666 0.720729 0));
    }
    procBoundary6to8
    {
        type            processor;
        value           nonuniform List<vector> 5((0.9588 0.650147 -3.44402e-19) (0.62356 0.661452 -2.4777e-18) (0.868756 0.633662 1.13053e-18) (0.842696 0.729806 -1.6907e-18) (1.04469 0.362137 0));
    }
    procBoundary6to9
    {
        type            processor;
        value           nonuniform List<vector> 3((1.32244 0.245266 -4.00052e-19) (1.15903 0.29297 2.50893e-18) (1.05604 0.256196 1.06064e-18));
    }
    procBoundary6to19
    {
        type            processor;
        value           nonuniform List<vector> 4((0.760774 1.09703 -2.30841e-19) (0.461121 1.0015 1.02819e-18) (0.617843 1.08364 1.34688e-18) (-0.027937 1.01903 1.83692e-18));
    }
    procBoundary6to21
    {
        type            processor;
        value           nonuniform List<vector> 2((1.36421 1.26121 -1.27388e-19) (0.974827 1.51006 4.09032e-19));
    }
}


// ************************************************************************* //
