/*--------------------------------*- C++ -*----------------------------------*\
| =========                 |                                                 |
| \\      /  F ield         | OpenFOAM: The Open Source CFD Toolbox           |
|  \\    /   O peration     | Version:  2412                                  |
|   \\  /    A nd           | Website:  www.openfoam.com                      |
|    \\/     M anipulation  |                                                 |
\*---------------------------------------------------------------------------*/
FoamFile
{
    version     2.0;
    format      ascii;
    arch        "LSB;label=32;scalar=64";
    class       volVectorField;
    location    "3";
    object      U;
}
// * * * * * * * * * * * * * * * * * * * * * * * * * * * * * * * * * * * * * //

dimensions      [0 1 -1 0 0 0 0];

internalField   nonuniform List<vector> 
38
(
(0.83982 0.0421974 0)
(0.74112 0.178227 2.85614e-19)
(0.719051 0.124744 -2.8848e-19)
(0.906593 0.0273771 0)
(0.842392 0.0632456 0)
(0.781348 0.0206524 1.25897e-18)
(0.767118 0.127636 4.5049e-19)
(0.733603 0.072836 -4.35521e-19)
(0.786362 0.101283 0)
(0.813556 0.0524045 -2.02094e-18)
(0.759627 0.0279547 7.6653e-19)
(0.854483 0.120589 4.79014e-19)
(0.956579 0.148753 0)
(0.862828 0.138846 0)
(0.828539 0.144295 1.32219e-19)
(0.897395 0.0944614 7.52605e-19)
(0.85866 0.107918 -2.75467e-19)
(0.856 0.0763311 -8.73798e-19)
(0.83188 0.264953 6.51736e-19)
(0.911854 0.122492 -9.73774e-19)
(0.886812 0.17561 1.20721e-19)
(0.815533 0.250331 2.74016e-19)
(0.876603 0.214726 0)
(0.954489 0.156254 4.92674e-19)
(0.961253 0.101648 0)
(0.911106 0.0677274 1.53002e-19)
(0.786574 0.288336 3.14781e-19)
(0.865636 0.27559 -8.16351e-19)
(0.846627 0.2143 0)
(0.827221 0.155838 0)
(0.784806 0.185376 0)
(0.827205 0.222235 -4.94209e-19)
(0.78695 0.225271 -2.90389e-19)
(0.909775 0.0542042 -3.13031e-19)
(0.927759 0.0775354 0)
(0.900642 0.0823723 1.45641e-19)
(0.870911 0.0467208 5.57039e-19)
(0.880492 0.0451064 -3.60959e-19)
)
;

boundaryField
{
    wall-4
    {
        type            noSlip;
    }
    velocity-inlet-5
    {
        type            fixedValue;
        value           nonuniform List<vector> 0();
    }
    velocity-inlet-6
    {
        type            fixedValue;
        value           nonuniform List<vector> 0();
    }
    pressure-outlet-7
    {
        type            zeroGradient;
    }
    wall-8
    {
        type            noSlip;
    }
    frontAndBackPlanes
    {
        type            empty;
    }
    procBoundary10to8
    {
        type            processor;
        value           nonuniform List<vector> 4((0.704683 0.141324 8.18211e-19) (0.782461 0.232122 4.81885e-19) (0.845959 0.347296 1.24584e-20) (0.771411 0.290536 0));
    }
    procBoundary10to9
    {
        type            processor;
        value           nonuniform List<vector> 3((0.920616 0.265594 -1.84215e-20) (0.923255 0.219115 6.06624e-19) (0.949539 0.162345 0));
    }
    procBoundary10to11
    {
        type            processor;
        value           nonuniform List<vector> 4((0.906876 0.00974731 0) (0.969066 0.117992 0) (0.958276 0.0286797 0) (0.920513 0.0775709 -4.08958e-19));
    }
}


// ************************************************************************* //
