/*--------------------------------*- C++ -*----------------------------------*\
| =========                 |                                                 |
| \\      /  F ield         | OpenFOAM: The Open Source CFD Toolbox           |
|  \\    /   O peration     | Version:  2412                                  |
|   \\  /    A nd           | Website:  www.openfoam.com                      |
|    \\/     M anipulation  |                                                 |
\*---------------------------------------------------------------------------*/
FoamFile
{
    version     2.0;
    format      ascii;
    arch        "LSB;label=32;scalar=64";
    class       volScalarField;
    location    "27";
    object      p;
}
// * * * * * * * * * * * * * * * * * * * * * * * * * * * * * * * * * * * * * //

dimensions      [0 2 -2 0 0 0 0];

internalField   nonuniform List<scalar> 
918
(
0.266712
0.92979
0.0226447
0.265995
-0.0147157
0.896864
-0.793108
0.441625
0.246788
-0.372764
-0.391736
0.238426
0.757425
0.524278
-1.41874
-0.257836
0.394744
-0.671891
0.245788
-0.12162
0.48626
0.253434
0.256477
0.247075
0.307899
0.507625
0.638216
-0.00898822
0.0143484
-0.00586388
-0.0203735
-0.0823935
-0.109441
0.780489
0.831602
0.854281
0.215572
0.043537
-0.649512
-0.722717
-0.710937
-0.839637
0.433546
0.437764
-0.45682
0.441733
0.453512
0.234171
0.246138
0.247077
0.248187
0.247102
0.248513
0.141075
-0.377668
-0.409949
-0.354126
-0.345064
-0.187273
-0.377536
-0.357455
-0.403162
-0.392797
0.168732
0.235448
0.232947
0.243408
0.250612
0.869341
0.84123
0.867378
0.781135
0.797611
0.735367
0.707966
0.544363
0.566072
0.510778
0.499532
-1.85998
-2.82921
-0.819341
-0.563253
-0.00711646
-0.270555
-0.279168
0.384459
0.387112
0.394491
0.406899
0.790238
-0.66678
-0.806562
0.245852
0.244641
0.253153
0.253834
0.249841
0.248934
-0.171935
-0.227691
-0.0402001
-0.0933567
-0.0785541
0.472307
0.468774
0.247631
0.244665
0.258241
0.280316
0.270519
0.00820169
0.314868
0.332956
0.325255
0.495263
0.490612
0.498813
0.611612
0.575468
0.675407
0.698518
0.00163897
-0.00118962
-0.244972
-0.144532
-0.185328
0.211617
0.204527
0.229834
0.218845
0.2212
-0.0409217
-0.177341
0.129558
0.153157
-0.558781
-0.624013
-0.730465
-0.744531
-0.85303
0.290996
0.424574
0.42544
-0.474902
-0.393534
-0.534718
-0.319853
-0.384869
0.224619
0.231497
0.226544
0.241872
0.23641
0.238345
0.250415
0.247507
0.249041
0.202994
0.32567
0.069654
0.0373597
-0.528668
-0.429151
-0.517448
-0.332822
-0.337866
-0.192322
-0.162139
-0.200232
-0.187987
-0.335388
-0.341012
-0.333451
-0.385159
-0.360902
0.16167
0.151076
0.180092
0.1872
0.227282
0.22827
0.230662
0.229269
0.658603
0.680955
0.688606
0.662378
-3.8375
-6.65623
-0.231738
-0.0915775
-0.00971028
-0.00309285
-0.00138326
0.000622547
0.00129148
-0.0113928
-0.202462
-0.213073
-0.249481
-0.236341
0.369286
0.37018
0.706828
0.700394
0.692604
0.645742
0.23391
0.236078
0.241633
0.237485
-0.344704
-0.279943
-0.305465
0.45081
0.460944
0.460314
-0.0274258
-0.111935
0.0542926
0.0813861
0.355321
0.338469
0.354147
0.386895
0.424712
0.706021
0.724402
0.722515
0.731055
0.775083
0.791479
0.75689
0.192468
0.201651
0.196788
0.233086
0.230737
0.231695
0.226792
0.228448
0.22609
-0.330805
-0.717749
0.212047
0.230154
0.200262
0.214266
0.366307
0.438299
0.404955
0.414668
0.416316
-0.25294
-0.3135
-0.00103402
-0.0369017
0.106291
0.139796
0.121247
0.629814
0.590354
0.640369
0.613605
0.575013
0.600401
-0.669801
-2.1938
-1.29969
0.26686
0.0759569
0.165566
-0.200127
-0.186429
-0.182267
0.688402
0.768368
0.381629
0.541603
0.554343
0.463773
0.494075
0.549046
0.4755
0.509306
0.543719
0.524058
0.250971
0.223568
0.21873
0.508462
0.564635
-0.139537
-0.192159
-0.239872
-0.152816
-0.09109
-0.118784
0.736105
0.625061
0.700391
0.244387
0.245071
-0.0217687
-0.0507602
0.249176
0.249224
-0.0245701
-0.0897984
0.147444
-1.12798
-0.151769
0.237568
0.228023
0.244756
-0.359202
0.0986167
-0.365721
-0.186996
-0.244684
0.236319
0.177984
0.141334
-0.0152132
-0.28069
-0.191918
-0.485537
0.242042
0.240376
0.244247
0.245293
0.245922
-0.0427162
-0.0426739
-0.025487
-0.172607
-0.103047
-0.107748
0.209861
0.22633
-0.445755
0.244434
0.246522
0.246381
0.239457
0.245205
0.24337
-0.178383
-0.124123
-0.240518
-0.041386
0.0751165
0.397455
0.495971
0.360268
0.132544
-0.107944
0.295708
0.362341
0.263292
0.424158
0.415657
0.431507
-0.0903288
-0.23684
-0.0823553
-0.136827
0.235501
0.234127
0.226276
0.223456
0.23967
0.237727
0.242368
0.239248
0.242213
0.243612
-0.319002
-0.342838
-0.357764
-0.419071
0.0570078
0.314159
-0.00851217
0.0287676
-0.124514
-0.402073
-0.383333
-0.350394
-0.338368
-0.287466
-0.254628
-0.214428
-0.195976
-0.274257
-0.253064
-0.348652
-0.305741
-0.323299
0.230241
0.229289
0.235463
0.242347
0.187186
0.190947
0.158236
0.177127
0.162385
0.107998
0.141144
0.116513
-0.0180362
-0.0191747
-0.00545857
-0.283831
-0.319228
-0.144843
-0.0852543
-0.122226
-0.0864037
-0.0943897
-0.287864
-0.299627
-0.446842
-0.563078
0.692094
0.638048
-0.171569
0.231295
0.237663
0.234499
0.239161
0.242297
0.243209
0.240943
0.237525
0.227044
0.228885
0.225038
0.225422
-0.386871
-0.521673
-0.3469
-0.413419
-0.149925
0.34648
0.0881514
0.028633
0.0239757
0.240385
0.640065
0.439616
0.444362
0.469247
-0.62923
-0.230647
-0.561562
0.0584698
-0.118651
0.394749
0.445986
0.468907
0.415583
0.366355
-0.403769
0.254594
-0.332173
-0.288994
-0.0994365
-0.201902
0.438926
0.399083
0.403766
0.418775
0.437942
0.403001
0.381474
0.378617
0.4152
0.420313
0.213223
-0.00920594
-0.0538505
-0.0913185
0.380797
0.254644
0.311363
0.226949
0.230272
0.23318
0.231676
0.21459
0.221875
0.217674
0.222949
0.226137
0.235435
0.235794
0.231125
0.233541
-0.319308
-0.327218
-0.300616
-0.40831
-0.400851
-0.446962
-0.342793
-0.207821
-0.243901
-0.0510843
0.0588983
-0.231921
-0.348239
-0.318414
-0.289874
-0.106177
-0.0808436
-0.189573
-0.0995171
-0.107467
-0.119512
-0.0170589
-0.0134152
-0.350072
-0.308011
-0.307551
-0.346709
-0.228526
-0.170139
-0.158816
-0.43264
-0.41428
-0.398005
-0.385283
-0.281362
-0.291929
-0.294058
-0.24053
-0.245531
-0.257435
-0.305931
-0.453159
-0.341796
-0.359124
0.22532
0.226767
0.226904
0.236377
0.249106
0.264012
0.229209
0.207894
0.199267
0.202286
0.177478
0.187185
0.182205
0.195261
0.214616
0.221755
0.221245
0.223497
0.20728
0.209199
0.196579
0.199476
0.177181
0.160308
0.149419
-0.14665
-0.0863078
-0.133572
-0.114802
-0.0479276
-0.0749813
-0.30975
-0.308566
-0.324404
-0.315241
-0.305631
-0.20152
-0.206172
-0.359942
-0.285359
-0.470428
-0.502276
-0.571945
0.601705
0.710839
0.529549
0.313603
0.316976
0.546442
0.639453
0.278696
0.452369
0.481066
0.264308
0.52767
0.236117
0.235686
0.233282
0.232717
0.234176
-0.303173
-0.203049
-0.186889
-0.138672
-0.0194606
0.0965829
0.000867173
-0.122313
0.0157432
0.0245467
0.341553
0.358071
0.30249
0.327668
0.326074
0.153196
0.229202
0.284108
0.238939
0.282304
0.304247
0.265491
0.29529
0.243346
0.201383
0.200157
0.145697
0.16672
0.144326
0.126143
0.225761
0.204483
0.214322
0.205597
0.225268
0.253051
0.247676
0.274531
0.286469
0.210777
0.17217
0.181053
0.208386
0.170659
0.183873
0.198533
-0.0782224
-0.178367
-0.0895346
-0.381332
-0.295158
-0.311189
-0.356891
-0.315936
-0.0292394
-0.729849
-0.701177
-1.33743
0.193699
0.667783
0.395393
0.367116
0.434254
0.411822
0.414678
0.441016
0.44756
0.369928
0.388253
0.391656
0.342726
0.368526
0.393058
0.390481
0.223895
0.105471
0.0967564
0.0578858
-0.0646301
-0.0334094
0.170941
0.0929324
0.0199916
0.024759
0.188638
0.0796322
0.144843
0.182901
0.115743
0.0721283
0.269944
0.337833
0.329499
0.303303
0.218723
0.230933
0.257211
0.293443
0.319859
0.355089
0.222998
0.228576
0.229783
0.227236
0.224696
0.227442
0.227496
0.23003
0.230896
0.23389
0.232849
-0.31812
-0.296143
-0.327385
-0.339343
-0.293276
-0.29998
-0.251525
-0.263694
-0.272813
-0.26382
-0.301255
-0.30139
-0.304959
-0.291284
-0.17177
-0.15506
-0.16581
-0.212609
-0.0381023
0.100096
0.163723
0.0470629
-0.0613348
-0.0315299
-0.00741512
-0.264444
-0.242352
-0.25226
-0.208353
-0.218587
-0.417201
-0.435204
-0.440249
-0.419455
-0.39093
-0.425743
-0.346334
-0.398528
-0.395945
-0.383754
-0.359202
0.209688
0.203225
0.205441
0.199788
0.198423
0.21186
0.215918
0.217385
0.222149
0.223764
0.215432
0.220012
0.22329
-0.403275
-0.312831
-0.363324
-0.438263
-0.352452
-0.284449
-0.32403
-0.181022
-0.250969
-0.245128
-0.287161
-0.410761
-0.353283
0.178477
0.173892
0.189905
0.40287
0.256561
0.174024
0.266721
0.369471
-0.0355904
0.165766
-0.00341147
0.578418
0.46577
0.60886
0.237214
-0.0614761
0.0905598
0.14411
-0.0520663
0.018006
0.0367298
-0.0742028
-0.043936
-0.0144277
0.0863579
-0.0355263
-0.0641582
-0.310607
-0.126728
0.00268481
-0.0190994
0.116555
0.181429
-0.0513015
-0.126684
-0.170034
0.332213
0.352628
0.371504
0.341216
0.365631
0.287887
0.2786
0.297306
0.306559
0.300526
-1.06523
-0.773114
-1.71615
-1.02521
-0.576316
0.229417
0.185585
0.467846
0.356311
0.427965
0.41106
0.36988
0.333978
0.344626
0.37894
0.0810145
0.190772
0.164632
0.171679
0.0749708
0.00806723
0.306698
0.300254
0.338263
0.362609
0.327758
0.362307
0.220823
0.220342
0.220271
0.217073
0.215097
0.217134
-0.21295
-0.230232
-0.208437
-0.227452
-0.24151
-0.248087
-0.483129
-0.462392
-0.51043
-0.485323
-0.480985
-0.462554
-0.144418
-0.20025
-0.270819
-0.244387
-0.299339
-0.363989
-0.380485
-0.2838
-0.196026
-0.203595
0.0989824
0.35125
0.175933
0.345881
0.182784
0.240402
0.184774
0.179049
0.21079
0.078931
0.154354
-0.0781575
-0.583633
-0.490304
0.482641
0.503249
0.293991
0.103544
-0.125963
0.0649364
0.25328
0.191649
0.232155
0.300153
0.294069
-0.294461
-0.224337
0.0256271
0.252549
-0.0701534
-0.0770687
-0.0818406
0.0863849
0.0125049
)
;

boundaryField
{
    wall-4
    {
        type            zeroGradient;
    }
    velocity-inlet-5
    {
        type            zeroGradient;
    }
    velocity-inlet-6
    {
        type            zeroGradient;
    }
    pressure-outlet-7
    {
        type            fixedValue;
        value           uniform 0;
    }
    wall-8
    {
        type            zeroGradient;
    }
    frontAndBackPlanes
    {
        type            empty;
    }
}


// ************************************************************************* //
