/*--------------------------------*- C++ -*----------------------------------*\
| =========                 |                                                 |
| \\      /  F ield         | OpenFOAM: The Open Source CFD Toolbox           |
|  \\    /   O peration     | Version:  2412                                  |
|   \\  /    A nd           | Website:  www.openfoam.com                      |
|    \\/     M anipulation  |                                                 |
\*---------------------------------------------------------------------------*/
FoamFile
{
    version     2.0;
    format      ascii;
    arch        "LSB;label=32;scalar=64";
    class       surfaceScalarField;
    location    "27";
    object      phi;
}
// * * * * * * * * * * * * * * * * * * * * * * * * * * * * * * * * * * * * * //

dimensions      [0 3 -1 0 0 0 0];

oriented        oriented;

internalField   nonuniform List<scalar> 
1300
(
3.75095
5.62643
-5.536
3.75095
-5.51451
5.62643
-4.47414
4.47414
-1.11715
1.11715
1.87647
1.87449
-2.95306
2.95306
-2.23133
2.23133
-2.56306
2.56306
-5.24649
5.24649
-5.06876
5.06876
4.67397
-4.67397
-4.05108
4.05108
-1.52674
1.52674
-3.91829
3.91829
3.16997
-3.16997
-3.31893
3.31893
-0.317368
0.317368
-0.553557
4.30451
3.1974
3.1974
-2.1768
2.1768
-4.8612
4.8612
6.2183
-6.2183
8.1665
-8.1665
-2.63051
-3.40709
1.55092
-9.15778
-3.96359
-3.96359
-8.4404
8.4404
-2.81397
2.81246
2.94234
-2.94234
-1.78513
1.78513
-4.40977
-0.0643786
-4.40977
4.47917
-0.00502254
4.47917
-1.24917
0.132022
-1.24917
3.97536
-3.97536
0.947542
0.169607
0.947542
3.06452
-3.06452
-1.87716
3.75363
1.87379
-1.87182
6.17633
-1.87913
3.75362
-5.90329
5.90329
-3.21433
0.261264
-3.21433
2.75132
0.201743
2.75132
-6.65524
6.65524
-2.40237
0.171043
-2.40237
2.2339
-0.00257651
2.2339
2.85483
-2.85483
-2.6598
0.0967352
-2.6598
2.46842
0.094639
2.46842
0.353554
5.27288
-5.97998
8.79244
-5.27288
0.0263897
5.20849
0.0379923
5.20849
-5.10606
0.0373021
-5.10606
5.01056
0.0581978
5.01056
4.76746
-0.0934978
4.76746
-4.78718
0.113212
-4.78718
-2.97965
-4.2468
-4.28617
0.235089
-4.28617
-1.53008
0.00333851
-1.53008
1.47867
0.0480693
1.47867
-3.53186
3.53186
-4.28182
0.363523
-4.28182
3.12467
0.0453037
3.12467
1.86853
1.88242
5.61949
-5.61949
2.44951
-2.87358
-0.44535
-2.87358
-3.76907
-4.39744
3.76907
-0.450139
-0.586265
0.268897
-0.586265
3.15916
0.0382372
3.15916
2.35756
0.110866
-2.35756
0.180756
3.23886
-3.23886
1.55834
0.618461
1.55834
-5.56736
5.56736
4.95249
0.0580694
-4.95249
0.0912923
6.15702
0.0612778
6.15702
-6.19958
-0.0187208
-6.19958
2.62934
-6.03643
-3.83524
3.95735
0.0937231
-3.95735
-0.00623648
2.91208
0.030259
2.91208
-2.92273
2.92273
-2.9825
0.0401587
-2.9825
-2.19083
0.405702
-2.19083
1.47862
0.306513
1.47862
-4.28243
-0.127333
-4.28243
-4.41584
0.134022
4.41584
0.0633283
1.02857
-1.02857
-1.37967
0.130496
-1.37967
-4.11793
-0.164504
4.11793
-0.142574
-3.8613
-0.114059
-3.8613
-3.02324
0.0407396
3.02324
0.0412821
3.11236
0.0468031
-3.11236
0.0478366
-1.87083
3.75325
-1.88012
3.75392
-5.5141
-0.389191
-5.5141
6.2126
-0.309307
6.2126
3.56304
0.355253
-3.56304
0.348713
2.58148
0.169844
2.58148
-6.6689
0.0136574
-6.6689
6.47753
0.177712
6.47753
2.48077
0.100711
-2.48077
0.0783963
2.3439
-0.109995
2.3439
2.86038
-0.00555038
2.86038
-2.86133
0.00649655
-2.86133
2.80473
-2.80473
2.7368
0.0679267
-2.7368
0.0770043
-11.1329
11.1141
-0.0352209
-11.0976
5.17327
5.17327
4.19984
0.567627
4.19984
-5.00022
0.213042
-5.00022
2.64405
-6.47929
4.13178
-7.11143
4.05026
-13.208
3.30127
-7.54807
5.52328
-5.52328
4.8311
0.692179
-4.8311
0.544932
-1.55428
0.024199
-1.55428
-2.92142
-0.610442
-2.92142
4.19336
-0.661501
4.19336
-3.02947
3.02947
-3.07838
0.0489067
3.07838
0.0462862
2.57634
-0.232444
-2.57634
-0.297234
0.7658
0.181742
-0.7658
0.179535
3.45936
-0.220508
3.45936
-3.03478
-0.204071
-3.03478
-1.55959
0.00530938
1.55959
-0.00124969
-5.81648
0.249113
-5.81648
-11.1906
0.092991
-11.1526
-6.10659
-6.10659
2.33381
11.1263
-2.88413
0.0227969
2.88413
0.0279539
2.97698
0.0524996
-2.97698
0.0542435
-2.8655
0.0607716
2.8655
0.0572339
-2.57075
0.379915
-2.57075
-1.05893
1.05893
-1.24501
0.186082
1.24501
0.233607
1.2645
-0.235936
1.2645
1.43704
0.0416331
-1.43704
0.0573719
-3.75397
-0.107329
-3.75397
6.42323
-0.210633
6.42323
-2.91588
-0.118905
2.91588
-0.0554961
-0.0332815
11.1474
-5.13999
0.0339286
5.13999
-11.2087
11.2426
-3.24593
0.675185
3.24593
0.953903
5.28965
0.27771
-5.28965
0.289434
6.13432
0.343206
-6.13432
0.611047
-2.4289
-0.492515
-2.4289
-4.92737
-0.586735
4.92737
-0.734003
-11.4758
-0.202921
11.6787
-11.4176
6.0194
0.137624
-6.0194
11.3803
-0.970802
-0.0577628
0.970802
0.0881275
1.576
-0.311503
1.576
3.65033
-0.190968
-3.65033
-0.103636
-6.55768
-0.111219
6.55768
-0.134449
-1.98598
-0.442923
1.98598
-0.409978
-4.26683
4.30507
1.9095
-2.12802
-3.90841
-6.52546
1.85178
1.90147
4.30129
-8.38711
-4.82092
-8.39335
7.26766
-6.97823
-9.28075
9.18725
7.57745
-7.69151
-5.78499
5.83128
6.48176
-6.44048
1.87909
1.87453
7.92765
-7.66639
-15.6512
15.262
6.56125
-6.3902
15.7583
-15.7447
-17.9939
18.3371
-5.73794
5.83468
-6.69802
6.70452
-6.87833
6.82283
-1.99697
-5.11446
12.3129
-12.0778
7.87266
-8.31801
-8.50199
8.86551
3.38243
0.922643
3.42923
-1.88234
3.76143
-1.87129
3.78078
4.21901
-6.21598
2.26028
-6.16869
4.61447
3.25819
-4.16433
-2.36112
-5.91858
5.94884
-5.8219
5.87914
8.9024
-8.96678
-1.88502
3.75956
-1.86889
3.77036
-3.42526
-2.35973
3.37996
0.921335
7.08738
5.2255
-7.18111
-1.21224
-7.79421
7.60324
-8.073
7.86893
-0.444687
5.82132
-5.37664
4.41651
-1.55603
7.37735
5.71163
5.92467
5.86674
-5.58903
1.11149
-6.48813
-6.39684
-2.54864
2.67913
2.51306
-2.34345
5.93985
1.6376
5.79728
-5.54621
-2.1453
-5.65354
3.82111
2.01017
3.87002
4.07561
2.40616
4.11634
3.03126
-3.03517
0.00390909
-3.05636
6.08762
0.72439
-5.41609
-4.49475
4.93367
2.99398
5.13541
-5.50123
-2.16516
-5.15252
-9.52223
-6.12899
-10.109
10.092
5.17005
9.78268
-11.958
11.8236
3.70855
2.85269
3.70598
-4.52958
-1.86062
-4.45118
12.3368
-3.20814
-9.12866
-10.3929
-7.60103
10.2151
5.54319
10.8198
7.51726
11.4309
4.69539
7.64141
-10.2386
2.63754
-3.87388
-1.86406
-3.79687
3.71305
2.12163
3.80769
-4.20707
-2.49095
-4.18427
-4.26213
-2.6162
4.26768
2.43684
-4.33758
-3.73543
4.45648
2.36635
4.22005
-9.04096
3.32803
-8.44248
-9.11151
-2.96629
-8.56658
5.44311
1.16417
-6.60728
-0.77287
9.30268
-6.0445
6.94156
-4.19749
-4.12052
-4.49473
-6.7937
-1.70829
-6.65968
-8.86343
8.37091
-9.1745
8.513
12.7259
-5.70356
-7.02238
-3.96814
-2.47234
3.92031
-0.491077
-3.7122
3.71611
0.0492289
3.83001
4.75265
4.26158
-3.88691
-1.93499
-3.83267
3.83323
2.04591
3.894
6.72666
2.17574
6.72164
-6.42478
-2.542
-6.55211
9.10133
-8.69563
2.94566
-2.94035
5.2607
2.60823
-5.04019
-2.75402
6.13387
-3.07887
-3.055
-12.2127
10.5665
1.64621
-4.83535
-0.418834
-0.101466
-5.50258
-3.77816
5.38937
0.535304
11.1018
7.32363
-5.51248
5.76159
6.1662
6.22427
-0.172564
5.85124
-5.17606
5.36455
-2.47842
-2.88614
5.28941
-5.45391
-1.2627
-5.30019
4.03748
0.343367
1.75147
-1.48257
-2.01936
-0.529274
-1.96199
1.48702
1.02604
1.66876
0.989919
1.68921
-2.92996
0.522214
2.40775
-1.94004
-1.82124
-3.68581
-1.01614
4.70194
5.54328
2.05996
-5.43965
-0.213889
2.74151
-2.69344
-0.814028
-2.87178
2.08807
-2.90209
-3.54896
-1.90527
5.45424
-3.3707
-0.461966
3.3182
0.551818
-3.82512
-2.09347
3.78496
0.331384
-3.12446
6.18933
-3.06487
-5.05945
2.52925
3.55836
4.53942
-4.79038
2.44647
2.34391
-1.23202
4.19967
0.935736
4.36952
-6.7178
4.55264
5.72753
3.13798
-6.08278
0.930268
-5.78753
8.49423
-7.28602
-1.20821
4.10919
4.38503
7.18661
5.53933
-5.75345
12.9401
-1.15312
-6.13289
6.94065
-3.80268
4.74111
-8.54378
-10.2804
4.14754
-9.22425
10.9474
-1.72315
-3.60298
-8.35506
12.8272
-1.21699
-11.6102
8.56569
-4.06448
-4.90592
8.9704
-7.27262
6.76654
-1.60481
-5.16173
-10.0943
-5.65042
10.2055
1.61812
-11.3039
13.9415
-3.66251
3.09246
0.613516
2.98246
3.30481
-5.51837
2.21355
3.96781
-5.57261
1.99646
-7.51483
-7.50672
12.306
-4.79929
-10.473
-10.4795
0.00647882
2.36401
11.5775
-9.88126
6.923
2.95826
3.31065
0.583351
-3.37857
-0.4183
0.295626
4.55541
-4.85104
4.10331
4.21418
3.42045
1.13496
3.83838
2.11047
-3.86633
-0.317943
-4.13643
1.52024
-1.6996
-3.64778
5.16802
-4.08484
0.437061
-2.73016
-3.53594
6.2661
-4.59422
3.03976
3.14957
5.08567
-4.91457
1.37862
-2.41487
-2.4997
2.70622
-4.40581
1.9499
3.21811
4.31625
0.580825
6.96189
5.34412
-8.12607
-0.316415
10.5696
-9.35738
3.18711
8.24378
-10.1101
-0.369379
-8.93596
-0.254099
-5.7904
-6.86138
5.05471
-6.763
-3.48907
6.14156
0.580077
-6.20489
-0.454788
-6.01276
-2.85067
-6.45568
-3.06224
-6.11226
-8.8157
-1.64821
-7.16749
6.7227
-6.65684
-3.45213
7.39084
1.12216
-7.39697
7.33921
-7.4768
7.1653
0.0944727
3.62164
4.35605
1.88371
-2.38962
4.27333
-5.06779
7.24352
-8.48491
3.41713
3.98352
-6.52552
-4.50139
5.04856
4.05277
5.35507
8.9738
-10.5223
1.54854
-10.8502
12.1645
-1.31427
-16.6409
5.79069
-7.66709
2.68225
0.263407
2.70645
0.671956
2.41338
-3.08533
-2.26839
-2.26964
-2.31497
-3.37919
5.69416
1.14325
-3.37539
2.23214
-3.46984
4.61309
-0.0695304
-3.30586
5.2541
-2.84072
5.51751
-3.53937
1.97814
3.29315
5.62083
-2.32768
4.31013
-1.7019
1.82307
-4.15075
-1.55612
-2.99655
5.11818
-3.26955
3.70662
-0.267139
3.97375
-4.06483
0.985957
-0.644378
3.5698
3.75056
4.26492
-3.12996
2.94083
-4.64273
-1.20992
-4.06191
-0.843791
-0.303854
-3.79084
4.09469
6.07574
-6.3796
-5.27354
9.59499
-4.32145
7.73801
-5.41316
-2.32485
-4.28628
-4.40935
3.90637
1.94488
9.68289
0.212746
-5.62591
-4.96331
-4.00941
3.21928
2.14528
-1.96587
3.61208
2.06734
-0.315869
0.581589
1.08717
1.8576
-1.27602
0.215865
1.64174
-1.2667
2.00566
0.735848
-2.0473
0.085305
-1.39935
3.48741
1.0084
-2.03444
0.758422
1.02037
-3.49878
4.80482
-2.47724
-2.32758
5.82519
1.15698
-3.63422
4.14321
-3.79984
2.32073
-3.33686
-1.3135
-5.11334
-3.47574
-2.49338
4.72553
-3.20077
5.26073
1.17656
-5.04684
6.2234
-3.56096
1.65569
-3.04662
3.78247
-1.05213
-1.99449
2.76432
2.68991
-2.91637
0.0445933
-0.152048
2.30421
-2.45626
-0.597886
-2.53793
-4.57297
4.90435
-2.10652
4.55299
2.16681
-1.91373
6.46672
1.81168
-3.72542
-3.24777
-3.70973
-1.38151
3.15791
-0.303495
-4.14769
-5.46523
4.04698
0.322538
-6.93434
7.78311
-0.848765
-3.94036
-0.612281
4.72147
-5.94504
0.372427
-3.94858
3.83452
4.77026
5.0928
-11.435
-0.175222
-6.26497
1.15546
-7.42044
5.54049
-3.63577
7.78331
-10.4265
6.97433
-9.3043
6.5751
-0.845332
6.31375
-4.1002
2.81491
-8.46533
-6.84721
5.2744
-2.4217
5.88791
-2.88619
8.77411
-6.5487
4.82403
3.95007
-1.38775
-3.10698
-4.46707
3.07932
0.356961
3.33943
4.97589
-2.86542
4.65794
2.23882
-4.65369
-2.16699
-6.49689
1.8432
-3.34732
-1.91206
3.75526
3.17361
3.75697
1.25556
-3.33867
9.15672
-9.15025
-4.35743
-2.50395
4.8375
-1.75818
5.07341
-7.57736
-0.716987
4.895
-0.840734
-4.05427
0.808559
-4.29763
1.65002
-5.94765
5.11298
-5.56777
2.19341
-9.8605
-5.20356
-5.11544
-2.23726
-5.23954
-7.65442
5.41716
-1.86373
5.47548
-8.6669
7.82617
-3.49756
8.91472
-5.41856
-1.03712
5.82854
1.33676
10.2515
0.148913
-4.6503
-1.90613
4.00655
-2.10041
1.31314
-3.64193
0.364619
2.4275
3.39769
-6.46499
-0.060528
-4.71083
-3.92831
7.98108
5.66668
11.7424
1.22009
9.18633
-1.20525
10.4064
4.14983
4.38343
-3.03727
4.58581
1.05742
4.47455
-0.845157
2.8233
1.86129
1.86463
0.828808
2.29493
1.45563
3.28089
0.195556
-2.07409
4.64309
-8.6525
-0.982816
-8.08488
1.10237
5.73007
-4.6277
3.17072
-1.02545
1.07031
0.0827901
-1.64394
1.56115
-2.80335
-1.95981
-0.318068
-1.59915
2.35758
1.88826
-2.03951
-0.763839
0.316789
-3.79253
3.02007
-2.97548
-0.285567
5.93783
-2.72653
0.270276
-1.07085
-2.26765
-2.79692
2.71162
6.17547
0.291257
3.11059
5.19561
3.10214
0.236726
3.98522
-5.70837
-3.52961
-5.8836
-0.343102
4.37837
2.21711
9.36034
6.16718
4.409
-3.16836
-12.3186
6.56616
-1.98036
5.25189
-1.19763
-4.75002
4.97402
2.26951
-5.55409
-0.0136793
-4.7637
-6.74406
-0.544911
8.37108
-9.70658
8.66946
5.81879
1.3487
-4.40956
-0.705878
4.22348
0.159956
10.5664
-1.12158
-6.84371
7.96529
-4.60849
3.62568
0.853113
2.75896
2.41426
1.38881
-5.4549
-10.0826
-1.92348
-1.57531
-4.25106
0.450885
-2.33915
6.26743
-2.64175
3.94258
5.32354
6.39385
-2.16586
-4.21374
6.48731
-2.54473
3.84912
)
;

boundaryField
{
    wall-4
    {
        type            calculated;
        value           uniform 0;
    }
    velocity-inlet-5
    {
        type            calculated;
        value           uniform -3.75095;
    }
    velocity-inlet-6
    {
        type            calculated;
        value           uniform -5.62643;
    }
    pressure-outlet-7
    {
        type            calculated;
        value           nonuniform List<scalar> 8(5.536 5.51451 6.0376 7.60686 7.22645 6.46457 6.77583 7.35153);
    }
    wall-8
    {
        type            calculated;
        value           uniform 0;
    }
    frontAndBackPlanes
    {
        type            empty;
    }
}


// ************************************************************************* //
