/*--------------------------------*- C++ -*----------------------------------*\
| =========                 |                                                 |
| \\      /  F ield         | OpenFOAM: The Open Source CFD Toolbox           |
|  \\    /   O peration     | Version:  2412                                  |
|   \\  /    A nd           | Website:  www.openfoam.com                      |
|    \\/     M anipulation  |                                                 |
\*---------------------------------------------------------------------------*/
FoamFile
{
    version     2.0;
    format      ascii;
    arch        "LSB;label=32;scalar=64";
    class       volVectorField;
    location    "27";
    object      U;
}
// * * * * * * * * * * * * * * * * * * * * * * * * * * * * * * * * * * * * * //

dimensions      [0 1 -1 0 0 0 0];

internalField   nonuniform List<vector> 
918
(
(0.985168 -0.000498299 0)
(0.00500824 2.96625 0)
(-0.0317784 1.46331 0)
(0.979701 0.00214852 0)
(0.00788411 1.45175 7.0113e-20)
(-0.00703779 2.94879 -1.90562e-18)
(0.841049 1.18156 6.98121e-19)
(0.372475 0.169346 -9.75383e-21)
(0.999906 -0.000291971 0)
(0.0575306 0.851561 0)
(-0.00644214 0.627681 0)
(0.732722 -0.0087216 0)
(0.0110941 2.93039 0)
(0.00205155 2.7949 0)
(-0.0174852 3.16098 1.04857e-18)
(0.0152847 1.20774 2.48158e-19)
(0.469212 0.0679817 6.13799e-19)
(0.189421 1.21469 5.99329e-19)
(0.962823 0.00498645 0)
(-0.0437654 0.95089 0)
(0.0992894 0.210169 -4.83314e-19)
(1.002 -0.00498464 0)
(1.00021 -0.00980524 0)
(0.975707 -0.00644629 0)
(0.619853 -0.0444504 0)
(0.0164113 2.6369 0)
(-0.0150159 2.91012 6.61857e-19)
(-0.0787311 1.42034 0)
(-0.0811864 1.59879 0)
(-0.0455407 1.44109 0)
(-0.000864566 2.04549 0)
(0.0553487 1.49529 -5.5399e-20)
(0.0377593 1.237 0)
(-0.0206256 2.98759 -6.67919e-23)
(-0.0166977 3.0053 1.48119e-18)
(0.00210316 3.0002 0)
(0.870007 -0.00937402 0)
(0.403272 0.941022 -8.14709e-21)
(0.818816 1.20033 -9.68168e-19)
(0.968223 1.03599 9.14988e-19)
(0.686888 1.29591 -1.61963e-19)
(0.685186 1.28635 9.08154e-19)
(0.413305 0.263432 9.51627e-21)
(0.403431 0.152087 0)
(1.1559 0.55928 0)
(0.37439 0.266482 4.3981e-20)
(0.325886 0.171632 -4.56438e-20)
(0.919626 -0.00752313 0)
(1.00029 0.000151205 0)
(0.999912 0.000344963 0)
(1.00364 -0.00779098 0)
(1.00095 -0.000951597 0)
(1.00017 1.94012e-05 0)
(0.0771605 1.7808 -2.67689e-19)
(0.045046 0.998856 0)
(0.088962 0.9354 0)
(0.0188924 0.936423 0)
(0.0382658 0.784803 0)
(-0.00886063 1.98173 0)
(0.0278733 0.775211 0)
(0.00822025 0.669448 0)
(-0.014702 0.73938 0)
(-0.0217161 0.63369 0)
(0.832425 -0.0140792 0)
(0.853207 0.0250764 0)
(0.766752 0.00143721 0)
(0.82878 0.0300742 0)
(0.707097 -0.0167572 0)
(0.014696 3.0004 6.9831e-19)
(0.0115141 3.00792 0)
(0.00613055 3.00282 0)
(0.0135308 2.99733 7.7962e-24)
(0.00799443 2.95848 -1.03786e-18)
(0.0144814 2.98209 0)
(0.0108031 2.90363 0)
(0.0247375 2.93076 1.40952e-24)
(0.00437858 2.82492 0)
(0.0307171 2.91601 0)
(-0.00581792 2.74442 0)
(0.310401 3.56029 0)
(-0.13215 3.64215 0)
(0.140777 3.25181 9.7583e-19)
(-0.0120125 2.98544 0)
(-0.159625 1.9308 0)
(0.0335003 1.42324 -2.44731e-19)
(-0.0532144 1.26718 2.41469e-19)
(0.541917 0.153958 -2.11539e-19)
(0.468478 0.0382048 -2.04612e-19)
(0.521757 0.180535 -6.38845e-19)
(0.452273 0.0898553 -4.27422e-19)
(0.215246 0.910322 0)
(0.269483 1.35498 -6.30986e-19)
(0.385924 1.30336 1.03727e-18)
(0.987564 0.00852702 0)
(0.942141 0.00588477 0)
(1.0003 0.000573633 0)
(1.00287 0.00930216 0)
(1.00302 0.00842449 -1.26775e-18)
(0.991924 0.00971672 9.5723e-19)
(-0.0662798 1.0182 0)
(-0.0423199 0.829271 0)
(-0.096614 1.37845 0)
(-0.0537598 1.15892 0)
(-0.0247348 1.09701 0)
(0.149929 0.218549 1.49255e-19)
(0.20139 0.195942 0)
(0.993513 -0.00840387 0)
(0.954362 -0.00649298 0)
(0.789693 0.0321322 0)
(0.748675 0.0417735 0)
(0.675446 -0.0333891 0)
(0.961051 -0.00351339 0)
(0.683391 0.0589554 0)
(0.521308 -0.0203331 8.28325e-19)
(-0.0365507 2.86395 3.55529e-19)
(0.042464 2.90859 0)
(0.0550637 2.8845 0)
(-0.00503027 2.69838 0)
(-0.0131563 2.98533 6.09443e-19)
(-0.0180714 2.89537 0)
(-0.015326 2.98815 -1.9256e-18)
(-0.0133956 2.92524 6.64562e-19)
(-0.162925 1.63689 0)
(-0.155708 1.72153 0)
(0.0685589 1.40604 7.25518e-21)
(0.0714647 1.39752 0)
(0.011771 1.20367 0)
(0.937408 -0.00776292 0)
(0.855292 -0.00938061 0)
(0.864294 0.0070796 0)
(0.948757 -0.00796338 0)
(0.88331 -0.00839293 0)
(0.516441 1.13579 2.12068e-22)
(0.566966 1.18806 0)
(0.365454 0.883553 7.69243e-21)
(0.307854 0.743634 0)
(0.928106 1.07468 -2.63909e-19)
(1.04167 0.876122 5.39687e-19)
(0.379826 1.39404 0)
(0.54065 1.36305 0)
(0.545264 1.32388 0)
(0.103752 0.171378 -1.52323e-19)
(0.456092 0.247349 0)
(0.436906 0.139089 1.22382e-19)
(1.0121 0.930053 0)
(1.07996 0.777303 0)
(1.10529 0.719539 -4.69434e-19)
(1.13577 0.618617 0)
(1.18458 0.403726 5.72326e-20)
(0.957286 -0.00864623 0)
(0.96225 -0.0100803 0)
(0.901339 -0.00815499 0)
(0.984107 -0.00919639 0)
(0.97456 -0.00937627 0)
(0.936975 -0.00631058 0)
(1.00018 0.00232255 0)
(1.0009 0.00143595 0)
(0.999903 0.000848326 0)
(0.0362494 2.04349 1.6956e-19)
(0.120292 1.71834 0)
(0.0148667 2.15501 5.28627e-20)
(0.0583877 1.855 -6.7645e-20)
(0.136807 1.20566 -4.96121e-19)
(0.0452021 1.0818 0)
(0.0959325 1.07833 0)
(0.0253878 0.879277 0)
(-2.03669e-05 0.726501 0)
(-0.0220775 2.18004 2.61008e-21)
(0.0167551 1.97898 0)
(-0.0589071 2.13177 1.69055e-19)
(-0.0304262 1.93494 4.68824e-23)
(-0.000941317 0.851824 0)
(0.0132829 0.824909 0)
(-0.00401906 0.688961 0)
(-0.0306287 0.755062 0)
(-0.0303952 0.669458 0)
(0.928592 0.00752027 0)
(0.838296 -0.0128229 0)
(0.922429 -0.000692491 0)
(0.838005 -0.011041 0)
(0.813884 0.00490604 0)
(0.904082 0.0181629 0)
(0.882337 0.0207284 0)
(0.790174 0.00303812 0)
(0.00583844 3.06493 -6.16609e-21)
(0.0165912 3.05789 0)
(0.0147208 2.96911 0)
(0.00860515 2.87629 0)
(0.929065 3.97947 0)
(1.24473 3.31146 1.00421e-18)
(0.0708599 3.07747 0)
(-0.0273349 2.90747 0)
(-0.222301 1.72202 0)
(-0.224108 1.89185 0)
(-0.183624 1.80554 0)
(-0.0397764 2.05873 -1.192e-20)
(-0.173843 1.99926 0)
(-0.102211 1.96842 0)
(-0.109195 1.66589 1.17195e-20)
(-0.105148 1.69798 -1.80696e-19)
(-0.047967 1.51878 -2.46892e-19)
(-0.107609 1.43516 0)
(0.570101 0.124651 3.10934e-19)
(0.485555 0.013824 -3.04186e-19)
(0.260451 1.54484 0)
(0.262671 0.685941 -2.19203e-19)
(0.178741 1.63315 -7.35342e-19)
(0.22632 1.1616 7.37201e-19)
(0.902563 0.00668957 0)
(0.967626 0.0109848 0)
(0.974769 0.0107547 0)
(0.923663 0.00666848 0)
(-0.0371723 0.805833 0)
(-0.043758 0.889905 0)
(-0.0492141 0.742189 0)
(0.318162 0.258137 4.02058e-19)
(0.260217 0.234251 -4.81512e-19)
(0.271403 0.183445 0)
(1.08943 0.0868499 -6.1857e-22)
(1.07301 0.0404862 0)
(1.00102 0.0415557 0)
(0.895764 0.00114264 0)
(0.593664 0.0955671 0)
(0.623567 0.0707468 -1.33223e-18)
(0.500527 -0.000508158 5.07296e-19)
(0.00941782 2.98176 4.39936e-19)
(-0.0321267 2.86696 4.83287e-20)
(0.00368602 3.0502 -1.33002e-20)
(0.0200906 3.04346 4.77729e-19)
(-0.015015 2.99657 2.20749e-20)
(-0.0129582 2.94945 -8.93408e-23)
(-0.0172579 3.01199 -4.17917e-19)
(0.0147923 3.02403 3.02165e-19)
(0.00730833 3.03672 -4.72266e-19)
(0.930849 -0.00104315 0)
(0.937553 -0.00378861 0)
(0.843412 -0.00855811 0)
(0.956935 0.0114858 0)
(0.943492 0.0124258 0)
(0.882347 0.00640858 0)
(0.91955 0.0153257 0)
(0.927498 0.0142313 0)
(0.840154 0.00584942 0)
(0.72213 1.41643 2.96647e-19)
(0.756288 1.52609 0)
(0.204371 0.354161 3.09305e-20)
(0.192182 0.634188 2.52212e-19)
(0.253084 0.710758 -1.46225e-19)
(0.275276 0.557993 2.77869e-19)
(0.311122 0.736106 8.49354e-19)
(0.117226 0.200269 2.32003e-19)
(0.499673 0.200515 -4.43542e-19)
(0.482377 0.22102 1.15999e-19)
(0.446036 0.115994 2.30358e-19)
(1.1728 0.460522 2.70689e-19)
(1.18531 0.255414 2.80357e-19)
(0.00453771 2.17903 1.70074e-20)
(0.0480104 1.90502 0)
(0.956009 0.0310647 0)
(0.928722 0.0151531 0)
(0.855258 -0.0106966 0)
(0.0110872 3.07435 0)
(0.0197858 2.94417 8.24492e-19)
(0.0164782 2.95635 0)
(0.00626389 2.85069 -8.17732e-19)
(0.00628835 3.09162 1.95709e-19)
(0.0072527 3.08266 0)
(0.7899 1.8297 -2.3102e-19)
(1.25251 2.50943 6.33174e-19)
(0.772272 1.96975 -1.46505e-18)
(0.0204495 2.98227 -3.29919e-19)
(0.0364718 3.00355 0)
(-0.0331522 2.87965 0)
(-0.0912336 2.04558 1.76846e-21)
(-0.131302 1.88886 -7.37939e-21)
(-0.0874912 1.84516 5.95956e-21)
(0.274235 1.35227 7.16396e-19)
(0.21348 0.4649 -4.93517e-19)
(0.0633197 1.96495 4.86272e-19)
(0.137806 1.8527 -6.0677e-19)
(0.178594 1.45689 8.5896e-20)
(0.003728 3.11793 -1.13732e-18)
(0.0170439 3.118 1.21624e-18)
(-0.00892983 2.98086 5.32211e-19)
(-0.00299449 2.97744 -4.75101e-19)
(-0.0215159 2.88187 -5.42041e-19)
(0.00872507 3.09876 -1.43447e-18)
(0.00200398 3.10682 1.39605e-18)
(0.251506 0.650705 0)
(0.210117 0.639454 -5.04912e-19)
(0.10431 0.215984 2.27421e-19)
(0.332324 0.857417 6.97475e-19)
(0.175728 0.240565 -1.06905e-18)
(1.17654 0.173458 -4.4849e-20)
(1.18567 0.308875 0)
(1.16485 0.121167 1.06452e-19)
(0.00647475 2.19934 2.15905e-21)
(0.00321253 2.20065 0)
(0.0218317 1.94429 0)
(0.337262 1.25048 -2.59602e-19)
(0.356753 1.06984 -5.53809e-19)
(0.186651 0.334962 9.5774e-19)
(1.00584 -0.0108995 0)
(1.00765 -0.00767642 2.31841e-19)
(-0.187991 1.57823 0)
(-0.191025 1.5305 0)
(1.00221 0.00352525 1.81999e-21)
(1.00372 0.00945739 4.76387e-19)
(-0.0444953 2.08706 1.51761e-20)
(-0.021867 2.12348 0)
(0.037442 3.18033 1.4068e-19)
(0.39799 3.49597 0)
(1.12825 0.647861 5.24002e-20)
(1.01298 0.0130508 -2.11141e-21)
(1.02116 -0.0105271 0)
(1.00173 0.000157628 9.97638e-23)
(0.104632 1.3548 0)
(0.149339 2.57565 0)
(0.0845138 1.13618 0)
(-0.00347951 2.61714 -1.87864e-19)
(-0.0748366 2.61469 -1.9961e-19)
(1.00651 0.0292198 2.73048e-21)
(1.05846 -0.00263413 0)
(1.08278 0.0174255 0)
(-0.241708 1.89884 0)
(-0.164014 2.40065 0)
(-0.232538 1.22515 0)
(0.275269 1.4646 -4.0946e-19)
(1.01124 -0.00973355 0)
(1.00933 -0.0149884 0)
(1.00249 0.000727593 2.95975e-19)
(1.00548 -0.00487217 -3.4809e-19)
(1.00119 -0.00104467 0)
(-0.310512 1.79215 0)
(-0.243229 1.59905 0)
(-0.257335 1.72316 0)
(-0.227855 1.243 0)
(-0.235091 1.39934 0)
(-0.189423 1.29072 0)
(1.03435 -0.00688225 0)
(1.02082 0.0154829 -1.03692e-21)
(0.786595 1.25566 4.92116e-19)
(1.00222 0.000373101 -2.93593e-19)
(1.00411 0.00526535 3.47353e-19)
(1.00116 0.0020418 0)
(1.01291 0.010208 2.89194e-19)
(1.00798 0.00823214 -3.57084e-19)
(1.00867 0.0145782 0)
(-0.140084 2.38655 0)
(-0.0648992 2.24307 -1.86786e-19)
(-0.0614614 2.26092 1.56166e-19)
(1.20012 0.26036 -4.97123e-21)
(1.13755 0.0887468 0)
(0.0474438 3.07757 -5.45844e-19)
(0.0666376 2.85277 -4.28777e-20)
(0.144522 3.19491 8.71973e-19)
(0.139498 3.22401 -1.94468e-20)
(0.137526 3.23727 0)
(0.0204918 3.13777 1.22223e-19)
(0.0781847 3.16137 5.32696e-19)
(0.0711019 3.18762 -2.35057e-19)
(0.0234223 3.12943 0)
(0.658998 0.316473 0)
(0.577228 0.371067 0)
(1.09968 0.676457 -2.09922e-19)
(1.09683 0.808597 -7.51974e-20)
(1.15725 0.568005 0)
(1.18688 0.513265 0)
(1.01616 0.0132978 -5.35662e-19)
(1.01497 0.0142229 -1.57082e-21)
(1.02507 -0.0103135 0)
(1.02299 -0.0124625 0)
(1.00657 0.00243691 0)
(1.01049 0.00360687 0)
(1.00436 0.00185962 0)
(1.00977 0.00615001 0)
(1.00789 0.00577498 0)
(1.00452 0.00460175 0)
(0.093481 1.35435 0)
(0.0881033 1.31738 0)
(0.119809 1.38225 0)
(0.133676 1.40759 0)
(0.14738 2.59763 0)
(0.188817 2.65707 -2.24464e-19)
(0.099348 2.65463 0)
(0.0864716 2.65723 2.69601e-21)
(0.0284852 2.68017 1.87892e-19)
(0.0789068 1.09214 0)
(0.0179728 0.971659 0)
(0.128167 1.18865 0)
(0.0261974 1.14147 0)
(0.0457673 2.02308 2.7394e-19)
(-0.08033 2.63113 -2.5821e-19)
(-0.018311 2.66111 -3.09171e-19)
(-0.0538029 2.66608 0)
(-0.136502 2.6499 5.56598e-19)
(-0.167898 2.6225 3.6253e-19)
(0.0278012 2.11095 -1.77809e-19)
(-0.0561881 2.5176 3.6394e-19)
(0.00926701 2.49633 3.70862e-19)
(1.01517 0.0350591 5.36438e-19)
(1.00869 0.0197882 2.48756e-21)
(1.00683 0.0404751 -5.44289e-19)
(0.988616 0.0203198 7.01622e-19)
(1.05931 0.00328277 0)
(1.04615 -0.0110862 0)
(1.08218 0.0245264 0)
(1.06611 0.00449397 0)
(1.06231 -0.00526099 0)
(1.12134 0.0781733 0)
(1.09437 0.0408974 0)
(1.09581 0.0335555 0)
(-0.155247 2.13109 5.50055e-21)
(-0.268871 2.03633 0)
(-0.197227 2.0333 0)
(-0.209591 2.52443 -1.75529e-19)
(-0.197522 2.50513 6.88029e-21)
(-0.390492 1.89782 -1.31948e-19)
(-0.315643 1.80501 1.32835e-19)
(-0.335597 1.53712 0)
(-0.334325 1.56621 0)
(-0.30437 1.59422 0)
(-0.226548 1.19724 0)
(-0.119366 1.0253 0)
(0.371576 1.47685 7.74986e-19)
(0.405113 1.48896 3.10277e-19)
(0.592304 2.44289 -1.63899e-19)
(0.405954 2.53617 4.51751e-19)
(0.352149 2.0858 -3.66123e-20)
(1.02091 -0.00848699 0)
(1.01545 -0.00992162 0)
(1.0148 -0.0156099 0)
(1.00773 -0.00145723 0)
(1.00497 -0.00110097 0)
(1.00773 -0.00491826 0)
(1.00922 -0.00381268 0)
(1.01408 -0.00452996 0)
(1.02156 0.0157794 5.13256e-19)
(1.01815 0.0157419 -6.61104e-19)
(1.02207 0.0175511 -5.14571e-19)
(1.01948 0.0162595 6.4426e-19)
(0.754681 1.30607 0)
(0.688445 1.36037 5.71703e-19)
(0.864959 1.19914 3.30863e-19)
(0.90925 1.15661 -4.40126e-19)
(1.15978 2.61601 -4.52166e-19)
(0.829402 0.0971473 3.25725e-19)
(1.13796 0.10403 0)
(1.18143 0.185431 7.96517e-21)
(1.16629 0.158139 4.54589e-22)
(0.998168 0.128301 0)
(0.140192 2.96351 1.8245e-19)
(0.118531 2.86928 -7.10517e-19)
(0.0299242 2.36716 5.01363e-19)
(0.0947371 0.0369453 -2.12038e-19)
(0.342889 3.42489 -4.14274e-19)
(0.196842 3.3166 0)
(0.238988 3.35922 5.39519e-19)
(0.249435 3.03649 -8.79857e-19)
(0.343438 3.1955 0)
(0.0060538 3.12099 2.77796e-20)
(0.0167585 3.12969 -3.49816e-19)
(0.0146144 3.12567 5.14866e-19)
(0.0361177 3.14011 0)
(0.0346992 3.15096 0)
(1.2207 2.61619 0)
(0.549301 0.840981 -2.74132e-19)
(1.02801 0.983312 -1.82124e-19)
(0.965542 1.05327 0)
(0.811429 0.955701 3.68827e-20)
(1.05075 0.866478 3.02669e-20)
(0.378402 0.419565 -5.65264e-19)
(0.701352 0.326862 -2.28931e-20)
(0.690348 0.254539 2.51289e-19)
(0.591422 0.401035 1.91948e-20)
(0.513205 0.379628 -7.81872e-19)
(0.669599 0.355158 0)
(0.691759 0.433678 4.14523e-19)
(0.697615 0.431897 0)
(0.628614 0.387901 0)
(0.61208 0.321206 0)
(0.778844 0.61154 1.64735e-19)
(1.19698 0.278538 -5.56444e-20)
(1.19188 0.414698 0)
(1.20611 0.362876 0)
(0.769537 0.204164 3.69532e-19)
(0.824392 0.542397 -2.10428e-19)
(0.731372 0.517047 -3.4767e-19)
(0.920493 0.418556 -3.37048e-19)
(1.02002 0.0144019 3.55241e-19)
(1.01795 0.0140918 -3.60829e-19)
(1.016 0.0155125 0)
(1.03557 -0.00643111 0)
(1.02931 -0.00882644 -3.27733e-19)
(1.02706 -0.0127494 3.24342e-19)
(1.02522 0.00942215 0)
(1.02387 0.0129797 0)
(1.01147 0.00391712 0)
(1.01436 0.00876847 0)
(1.01518 0.00358701 0)
(1.01408 0.00274195 0)
(0.0657139 1.34285 0)
(0.0606046 1.28115 0)
(0.153141 1.33531 3.0288e-19)
(0.257756 1.46255 2.32334e-19)
(0.152264 1.43709 4.93429e-19)
(0.180232 1.44481 -2.64876e-19)
(0.177768 1.37305 0)
(0.126368 1.59796 2.40682e-19)
(0.116945 1.56783 0)
(0.350719 2.04043 5.31983e-20)
(0.351136 2.37092 2.7021e-19)
(0.184335 1.43924 -2.10018e-19)
(0.261417 1.36315 1.73544e-19)
(0.196052 1.3533 1.3899e-19)
(0.269903 1.30125 2.73227e-19)
(0.239134 1.57614 -1.66154e-19)
(0.252096 1.6173 -1.74359e-19)
(0.0476112 2.27233 9.16987e-20)
(0.0420552 2.6687 0)
(0.070545 2.40186 -1.52893e-19)
(0.040856 2.42158 0)
(0.0654341 2.66752 -4.23164e-21)
(0.0427899 2.69713 0)
(0.173334 1.48594 3.5763e-19)
(0.157467 1.57149 0)
(0.139565 1.38768 0)
(0.19728 1.38051 -4.11916e-19)
(-0.00482321 2.6448 -2.78635e-20)
(0.0251614 2.69725 -2.46338e-19)
(0.012308 2.71819 -1.72176e-21)
(0.067392 2.07674 -3.34711e-19)
(0.141878 1.7917 1.3903e-19)
(-0.0279508 0.983041 0)
(-0.0225726 0.899824 0)
(0.0516767 1.60403 -3.89597e-19)
(0.101417 1.45198 -4.0416e-19)
(0.0933892 1.58841 5.13325e-19)
(0.0419276 1.60776 0)
(-0.293742 2.33178 6.67168e-19)
(-0.241584 2.52944 -2.58602e-19)
(-0.258425 2.52454 8.24385e-20)
(-0.0369975 2.07153 4.06544e-19)
(-0.223284 2.58939 1.3496e-19)
(-0.136988 2.55542 -4.50513e-19)
(1.02076 0.0203511 -3.4947e-19)
(1.0181 0.0259726 3.51695e-19)
(1.01476 0.0173599 0)
(1.01809 0.0572076 4.99894e-19)
(0.996707 0.0486353 -5.83542e-19)
(0.961229 0.0304187 6.70022e-19)
(1.01637 0.0883846 -6.5194e-20)
(1.04179 -0.00682485 0)
(1.04884 -0.00340352 2.97496e-19)
(1.03801 -0.0108289 -2.97588e-19)
(1.0656 0.0325934 -1.66581e-20)
(1.05889 0.0143666 1.47756e-19)
(1.06284 0.0451378 0)
(1.05841 0.0376489 -5.44256e-20)
(1.0362 0.0348565 0)
(1.03045 0.0324143 0)
(1.0273 0.0125664 0)
(1.02437 0.0152495 0)
(1.04214 0.0257428 1.13109e-19)
(1.03868 0.0200052 -2.56591e-19)
(1.05299 0.0227616 -1.16242e-19)
(1.05063 0.0231046 -1.31786e-19)
(1.07219 0.0537769 2.41346e-19)
(1.08342 0.0468689 0)
(1.09089 0.0935856 0)
(-0.314327 2.30715 1.73275e-19)
(-0.30393 2.08084 1.06093e-20)
(-0.303575 2.12376 0)
(-0.222097 2.31075 -1.7222e-19)
(-0.162946 2.1832 -1.59317e-20)
(-0.191295 2.25274 3.18749e-20)
(-0.196754 2.63822 -2.91441e-19)
(-0.221735 2.59247 2.54268e-20)
(-0.230718 2.58669 -1.14749e-19)
(-0.214731 2.60028 2.12601e-19)
(-0.217347 2.58305 -5.45894e-21)
(-0.44274 1.73591 -1.66005e-20)
(-0.37093 1.92199 -2.87953e-19)
(0.362142 1.40865 -3.8097e-19)
(0.358171 1.35148 -3.53916e-19)
(0.637719 1.40749 -5.52928e-19)
(0.506522 1.47276 -2.99737e-19)
(0.555311 1.44901 0)
(0.588635 2.41684 1.32515e-19)
(0.655928 2.40636 2.36777e-19)
(0.411369 2.51211 7.96966e-20)
(0.405144 2.55566 -2.10686e-19)
(0.515026 2.51234 3.00177e-19)
(0.545969 2.45631 0)
(0.487878 2.50442 -3.73952e-19)
(0.249457 2.58377 6.42849e-19)
(0.354337 2.55937 -8.02903e-20)
(0.286379 2.64321 -9.64958e-19)
(0.930228 2.38379 2.9213e-19)
(0.828352 2.38243 0)
(1.01082 7.95407e-05 1.1778e-20)
(1.01501 -0.00553352 -9.54959e-21)
(1.01747 -0.00366722 -1.73217e-19)
(1.01472 -0.000971074 1.74108e-19)
(1.01215 0.000772813 0)
(0.624777 1.27706 0)
(0.638072 1.15923 0)
(0.74104 1.06483 0)
(0.630264 1.13261 0)
(1.18698 2.63273 5.66546e-20)
(1.07694 2.37359 0)
(0.844093 2.21527 -1.14666e-21)
(0.827768 2.47484 0)
(0.921127 2.56072 -2.47999e-20)
(0.957355 2.51509 0)
(0.839573 0.147134 0)
(0.807929 0.138664 9.28935e-20)
(0.926361 0.122227 4.877e-19)
(0.857804 0.11862 -1.93255e-19)
(0.841476 0.0625877 -5.8071e-19)
(1.05207 0.220073 -3.18604e-19)
(0.96924 0.273259 -1.57558e-20)
(0.90718 0.270166 4.46511e-19)
(0.986438 0.20104 3.39057e-19)
(0.941832 0.160766 -6.20699e-19)
(0.914266 0.170007 7.97503e-20)
(0.940983 0.232468 -1.58434e-19)
(0.918219 0.192132 0)
(0.981752 0.160875 -2.99667e-19)
(1.02958 0.168308 0)
(1.02357 0.194294 0)
(1.08559 0.112081 1.04403e-19)
(1.05532 0.160485 -1.31475e-20)
(1.0465 0.223781 -1.64551e-19)
(1.0807 0.194249 0)
(1.02674 0.0389317 2.659e-19)
(1.04684 0.0486883 3.19345e-19)
(1.03844 0.0357676 -2.64709e-19)
(1.04877 0.0547104 -2.14736e-19)
(1.02388 0.0613361 -3.51922e-19)
(0.983174 0.130359 0)
(1.00151 0.0832309 0)
(0.97156 0.0457965 -2.42003e-19)
(0.927402 0.061841 9.95382e-20)
(1.03878 0.0874381 3.0038e-19)
(1.05958 0.112675 -3.15008e-19)
(1.06397 0.140414 2.86958e-19)
(1.02822 0.128282 0)
(1.06845 0.0997379 0)
(1.05638 0.0793857 -1.30593e-19)
(1.04973 0.0841798 -2.41649e-19)
(0.585231 1.09031 -6.71661e-20)
(0.620187 1.42824 1.69468e-19)
(1.16069 2.75 6.22486e-20)
(1.22737 3.08917 -6.18568e-20)
(1.25162 2.73143 4.80982e-19)
(1.2832 2.71483 -3.04194e-19)
(1.2112 2.35499 -8.98316e-21)
(1.21409 2.99366 1.59907e-19)
(1.23264 2.95916 -1.61288e-19)
(1.21908 3.24287 -2.53332e-19)
(1.38053 2.97561 3.50571e-19)
(1.37249 2.89352 0)
(0.545569 0.848065 -1.77836e-20)
(0.147561 1.26887 3.96698e-19)
(0.52512 0.479029 3.71498e-19)
(0.363017 0.239852 4.03724e-19)
(0.532559 0.406755 4.39388e-19)
(0.542692 0.490589 -6.85119e-19)
(0.544529 0.493015 5.61148e-19)
(0.499366 0.424221 -2.24115e-19)
(0.433054 0.364412 5.14918e-19)
(0.771219 0.258127 6.36633e-19)
(0.732372 0.288471 0)
(0.727321 0.227417 1.03818e-20)
(0.714026 0.518868 2.13233e-19)
(0.681523 0.490825 -7.86448e-19)
(0.603276 0.487039 1.665e-20)
(0.619272 0.476369 0)
(0.673296 0.728658 1.78589e-19)
(0.809679 0.763988 9.82243e-20)
(0.739102 0.841768 -1.21725e-19)
(0.852399 0.799043 -3.34774e-20)
(0.882233 0.836966 8.25217e-21)
(0.890931 0.839097 -8.44857e-21)
(0.81987 0.640056 -2.79479e-19)
(0.89919 0.693551 3.11043e-20)
(0.953824 0.703444 0)
(0.943581 0.677872 -3.59365e-20)
(0.995538 0.314364 7.99647e-20)
(1.10952 0.286968 3.51991e-20)
(1.03633 0.255938 1.3023e-19)
(0.974872 0.347279 -1.76978e-19)
(1.02041 0.413082 0)
(1.07537 0.402399 0)
(0.895486 0.353066 5.24351e-21)
(0.837186 0.287706 0)
(0.854561 0.276206 2.26369e-19)
(0.890767 0.277467 -6.31059e-21)
(0.91254 0.421584 9.25862e-19)
(0.869759 0.48467 2.36572e-19)
(0.873881 0.449175 -2.9046e-19)
(0.804666 0.435971 -3.11795e-19)
(0.787997 0.436436 2.07042e-19)
(0.75564 0.422035 -2.03225e-19)
(1.02815 -0.000696398 2.76291e-19)
(1.02013 -2.01691e-05 0)
(1.01855 0.000992552 1.85723e-19)
(1.02128 -0.00218721 -3.23173e-21)
(1.02212 0.00402641 2.03459e-19)
(1.02032 0.0107356 -4.27049e-19)
(1.02139 0.0101727 0)
(1.02102 0.0103636 -8.98717e-20)
(1.01598 0.00739984 2.25522e-19)
(1.01678 0.0100745 -1.1273e-19)
(1.01747 0.00933522 8.2883e-20)
(0.0803204 1.26546 0)
(0.126623 1.33283 0)
(0.0654012 1.31994 0)
(0.050864 1.21918 0)
(0.0575348 1.38351 -6.43849e-19)
(0.0821239 1.34653 2.05195e-19)
(0.103214 1.50971 1.42473e-19)
(0.0880985 1.34877 -1.61147e-19)
(0.0684077 1.47051 3.90382e-19)
(0.0587268 1.45233 -2.98565e-19)
(0.0587058 1.37094 -4.47984e-21)
(0.0655139 1.3787 -5.03592e-19)
(0.075618 1.34687 5.76437e-20)
(0.0755575 1.40076 -5.18955e-20)
(0.104187 2.39349 1.6997e-19)
(0.0995079 2.42763 0)
(0.17338 2.0652 -2.36208e-20)
(0.100971 1.71417 -9.53998e-20)
(0.227917 2.06886 1.86293e-20)
(0.211369 2.45386 0)
(0.269462 2.40742 -1.68009e-19)
(0.302647 2.40864 1.19762e-19)
(0.22738 2.02222 6.92885e-20)
(0.149968 2.18445 1.16559e-20)
(0.147861 2.30813 0)
(0.0285194 1.87911 4.00666e-19)
(-0.0190413 2.39035 4.28736e-19)
(-0.0101961 2.17562 0)
(0.0120325 2.45216 -1.30115e-20)
(-0.00448874 2.30511 -1.85183e-19)
(0.137964 1.41055 -7.7637e-20)
(0.0605713 1.2751 1.31691e-18)
(0.0504478 1.35894 -3.88206e-19)
(0.143633 1.46861 -4.1996e-19)
(0.155697 1.52554 0)
(-0.0117429 1.24386 0)
(-0.140444 1.04834 -4.03052e-19)
(-0.1573 1.15414 1.3269e-19)
(-0.0801628 1.18247 0)
(-0.0895138 0.969123 -3.08679e-19)
(-0.083855 0.953176 6.05004e-19)
(1.04073 0.0098914 0)
(1.04647 0.00581014 -2.79631e-20)
(1.03939 0.0184445 -2.04405e-19)
(1.04817 0.0144105 0)
(1.05085 0.0138001 0)
(1.03516 0.00959454 -6.15693e-21)
(1.03111 0.0104441 3.348e-19)
(1.03092 0.0144475 4.05296e-19)
(1.02613 0.0187331 0)
(1.02386 0.019568 0)
(1.03512 0.0212914 2.05582e-19)
(1.02632 0.0251866 0)
(1.02592 0.0234366 0)
(-0.281005 2.27999 0)
(-0.390212 2.02683 -5.44687e-20)
(-0.365217 2.17168 -1.48949e-19)
(-0.161226 1.27273 0)
(-0.386566 1.86888 -2.8427e-19)
(-0.388918 1.64581 1.06193e-19)
(-0.300519 1.3098 0)
(0.390887 1.69701 0)
(0.358751 1.27771 5.7907e-19)
(0.300797 1.33663 0)
(0.412223 1.27222 -4.11601e-19)
(0.458832 1.44539 0)
(0.438492 1.38391 3.55782e-19)
(1.02959 2.70357 -5.59835e-21)
(0.953966 2.41766 -3.87958e-19)
(0.896969 2.17871 4.17507e-19)
(0.840338 2.37574 1.3301e-19)
(0.844464 2.51795 0)
(0.91267 2.51133 0)
(0.912367 2.37767 0)
(0.892499 2.35797 -5.06401e-19)
(0.692876 2.49367 -5.0895e-20)
(0.801465 2.4848 -2.18389e-20)
(0.813392 2.45667 1.67113e-20)
(0.689538 2.38536 0)
(0.793482 2.38424 0)
(0.752995 2.39421 -2.42829e-19)
(0.770414 2.50656 0)
(0.598031 1.08422 0)
(0.493509 0.93988 -6.22263e-20)
(0.554044 0.966682 -5.07339e-21)
(0.524118 1.06961 0)
(0.527393 1.02416 9.57946e-20)
(0.761929 0.85966 -3.00791e-21)
(0.76757 1.00018 0)
(0.743436 0.957625 -3.51585e-20)
(0.633573 1.02065 0)
(0.638881 0.935899 0)
(1.16531 2.77186 2.26446e-20)
(1.14408 2.83549 9.84205e-20)
(0.936283 2.36125 -2.3958e-19)
(0.902925 2.33815 1.92134e-20)
(1.12891 2.746 0)
(1.08053 2.71702 -2.64354e-20)
(1.0878 2.49661 -1.06798e-19)
(0.983299 2.2363 -3.00537e-20)
(0.498249 1.37246 0)
(0.508361 1.08003 5.92558e-20)
(0.544093 1.14945 0)
(0.860534 0.215962 0)
(0.817288 0.168593 0)
(0.774163 0.153391 0)
(0.851464 0.222575 -3.56078e-19)
(0.791688 0.21952 2.18773e-19)
(0.936529 0.0511838 -2.04381e-19)
(0.952006 0.0996037 0)
(0.925403 0.105062 9.07658e-20)
(0.882247 0.0824765 3.69965e-19)
(0.866426 0.0456989 -2.27998e-19)
(1.16719 3.36801 -9.49587e-19)
(1.21442 3.28733 0)
(1.16576 3.39534 -1.87776e-18)
(0.652076 3.55553 1.61038e-18)
(0.879276 3.12138 3.35327e-19)
(0.522326 0.869635 2.83531e-19)
(0.444227 0.867741 0)
(0.349374 0.512357 -9.20406e-20)
(0.451601 0.689137 -4.44648e-19)
(0.528966 0.480873 -1.21859e-19)
(0.507255 0.523776 1.42393e-19)
(0.648661 0.541324 2.96046e-19)
(0.67888 0.565383 0)
(0.635903 0.619878 0)
(0.589761 0.560855 0)
(0.950254 0.586109 -3.68615e-20)
(0.871652 0.532096 -2.29126e-19)
(0.898447 0.565927 1.24341e-19)
(0.930351 0.501403 -1.6991e-19)
(1.03279 0.471333 0)
(1.04329 0.55885 -1.63607e-20)
(0.831058 0.388085 -4.59621e-19)
(0.835963 0.372579 6.98042e-19)
(0.785829 0.383533 3.60147e-19)
(0.778993 0.35205 -4.00458e-19)
(0.835211 0.310329 -2.98119e-19)
(0.789973 0.30572 3.66374e-19)
(1.02651 0.00517427 -2.17019e-19)
(1.02609 0.00565915 4.44657e-19)
(1.02895 -0.000974047 2.62929e-19)
(1.03305 0.000431059 -3.24707e-19)
(1.03317 0.0081325 0)
(1.02973 0.0082902 -5.24249e-19)
(0.0293597 1.6536 -5.58769e-20)
(0.0404273 1.57051 0)
(0.0720023 1.69805 -4.60028e-19)
(0.0858157 1.68406 4.24563e-19)
(0.0813921 1.51335 -2.67116e-19)
(0.0738971 1.48374 0)
(-0.0622574 2.07069 0)
(-0.0473472 1.56592 1.57809e-19)
(-0.198004 1.56171 -1.43906e-19)
(-0.28418 1.8592 -4.06992e-20)
(-0.239834 2.27283 2.73625e-19)
(-0.183038 2.24639 4.21661e-19)
(0.492681 1.38005 3.44483e-19)
(0.488108 1.38571 4.00811e-19)
(0.434282 1.27154 3.75024e-19)
(0.429661 1.29198 -2.23244e-20)
(0.615988 1.28555 0)
(0.535484 1.37461 4.8886e-19)
(0.549884 1.38343 -4.7561e-19)
(0.440693 1.26011 -3.61029e-19)
(0.494933 1.21544 0)
(0.549724 1.18525 0)
(0.658416 2.45138 7.48145e-20)
(0.669148 2.4776 6.06374e-19)
(0.718048 2.49436 -4.17207e-19)
(0.623552 2.47702 -1.29082e-19)
(0.561222 2.57053 1.17902e-19)
(0.512341 2.54272 -3.44435e-19)
(0.968641 2.38055 -2.26213e-19)
(1.01021 2.40008 0)
(0.912055 2.15897 -2.92134e-19)
(1.04901 2.69755 0)
(1.05103 2.68456 0)
(0.622437 2.28202 1.85914e-19)
(1.04803 3.16914 4.34767e-19)
(0.918909 3.03829 -3.72385e-19)
(0.287931 0.938244 0)
(0.33253 0.802857 -1.78717e-19)
(0.493554 0.759548 -6.411e-19)
(0.397305 2.02915 0)
(0.469401 2.78802 -2.33431e-19)
(0.42895 2.55268 0)
(0.683689 0.679401 -3.72421e-19)
(0.756294 0.673575 4.83335e-19)
(0.774919 0.622387 3.3241e-19)
(0.664742 0.651319 5.36423e-20)
(0.711699 0.600667 -2.20304e-19)
(1.00984 2.77448 -3.30563e-19)
(1.0438 2.82934 2.30951e-19)
(0.647956 2.1682 1.50408e-19)
(0.607849 1.72983 -1.33417e-19)
(0.706321 1.92026 4.77466e-20)
(0.994986 2.45797 -7.35777e-20)
(0.997378 2.45213 -1.06529e-19)
(0.67284 1.86178 -9.42783e-22)
(0.463963 1.35057 -3.24937e-20)
)
;

boundaryField
{
    wall-4
    {
        type            noSlip;
    }
    velocity-inlet-5
    {
        type            fixedValue;
        value           uniform (1 0 0);
    }
    velocity-inlet-6
    {
        type            fixedValue;
        value           uniform (0 3 0);
    }
    pressure-outlet-7
    {
        type            zeroGradient;
    }
    wall-8
    {
        type            noSlip;
    }
    frontAndBackPlanes
    {
        type            empty;
    }
}


// ************************************************************************* //
