/*--------------------------------*- C++ -*----------------------------------*\
| =========                 |                                                 |
| \\      /  F ield         | OpenFOAM: The Open Source CFD Toolbox           |
|  \\    /   O peration     | Version:  2412                                  |
|   \\  /    A nd           | Website:  www.openfoam.com                      |
|    \\/     M anipulation  |                                                 |
\*---------------------------------------------------------------------------*/
FoamFile
{
    version     2.0;
    format      ascii;
    arch        "LSB;label=32;scalar=64";
    class       volScalarField;
    location    "15";
    object      p;
}
// * * * * * * * * * * * * * * * * * * * * * * * * * * * * * * * * * * * * * //

dimensions      [0 2 -2 0 0 0 0];

internalField   nonuniform List<scalar> 
918
(
0.205895
0.884139
0.00785594
0.205231
-0.000280162
0.851271
-0.859805
0.389952
0.185842
-0.228336
0.0180492
0.177558
0.71182
0.478725
-1.49067
0.0125421
0.34428
-0.730848
0.184513
0.00604364
0.459253
0.192675
0.195656
0.186248
0.243613
0.471606
0.592176
0.00265601
-0.00321275
-0.00205987
0.00299365
-0.00337245
0.00217893
0.734893
0.785996
0.808642
0.155953
-0.0204498
-0.708981
-0.788709
-0.770038
-0.922707
0.379193
0.383037
-0.51271
0.391307
0.406582
0.173374
0.185186
0.1862
0.187409
0.186198
0.187678
0.250143
-0.284402
-0.349496
-0.148475
-0.108499
0.068024
0.0202919
0.012689
0.0238245
0.0217824
0.114987
0.174418
0.171929
0.183074
0.191531
0.823684
0.795564
0.821691
0.735505
0.751958
0.68976
0.662187
0.499036
0.520127
0.463806
0.453959
-1.93322
-2.90418
-0.890029
-0.631409
0.0020907
0.019535
0.024276
0.326987
0.334146
0.33608
0.348836
0.738363
-0.723499
-0.851916
0.184465
0.183426
0.192418
0.193087
0.189122
0.188252
0.0129861
0.0190325
-0.00362457
0.00424711
0.00330885
0.439413
0.436602
0.186761
0.183582
0.199563
0.222462
0.212045
-0.0419969
0.258053
0.282816
0.272548
0.452213
0.450334
0.457711
0.565722
0.528122
0.629587
0.652997
0.00773846
0.0019509
0.00962527
0.00725673
0.0104356
0.151216
0.145712
0.167222
0.158025
0.159867
-0.0985627
-0.231307
0.0561213
0.0735489
-0.612777
-0.686038
-0.78956
-0.801665
-0.90683
0.174313
0.364634
0.368657
-0.526346
-0.442236
-0.593537
-0.367137
-0.440411
0.163618
0.171186
0.165967
0.18069
0.175224
0.177053
0.189586
0.186644
0.188163
0.26591
0.350474
0.189503
0.186441
-0.598211
-0.427064
-0.556171
-0.062951
-0.0434703
0.0770017
0.0872844
0.0592967
0.0559758
-0.0166587
0.00691337
-0.00732098
0.022854
0.0230831
0.108946
0.100279
0.123584
0.130161
0.165882
0.166737
0.168774
0.16888
0.612883
0.635302
0.642805
0.616591
-3.91263
-6.73407
-0.297859
-0.154091
0.00177704
0.00297848
0.00105966
0.00236785
0.0038844
0.00156165
0.0335071
0.0325343
0.02766
0.031611
0.312243
0.318582
0.71312
0.717774
0.662903
0.663685
0.172787
0.174979
0.180148
0.175848
0.0230369
0.0203848
0.023877
0.405363
0.423039
0.424155
-0.0755102
-0.164188
0.00582526
0.0328247
0.300301
0.285074
0.303463
0.33669
0.373687
0.660382
0.678716
0.677031
0.68544
0.729482
0.745887
0.7112
0.134626
0.143131
0.138566
0.172395
0.168583
0.169884
0.165619
0.167452
0.165012
-0.384102
-0.77104
0.125895
0.128513
0.105703
0.109929
0.26308
0.337131
0.344718
0.353198
0.358077
-0.301202
-0.369241
0.159092
0.146848
0.0573301
0.0884165
0.0718881
0.584057
0.54471
0.594547
0.568127
0.52967
0.55552
-0.723019
-2.2533
-1.35533
0.212337
0.0161704
0.108247
0.051286
0.0357555
0.0443388
0.650597
0.713456
0.409397
0.559297
0.536907
0.416163
0.448702
0.500779
0.424103
0.459956
0.497619
0.480692
0.135044
0.131019
0.111176
0.405598
0.470206
-0.189856
-0.237187
-0.296748
0.0944447
0.124368
0.11818
0.680313
0.54315
0.63818
0.183697
0.184288
0.0117659
0.0217329
0.188348
0.18856
0.00632902
0.00816869
0.0874587
-1.20413
-0.195887
0.176753
0.167076
0.183767
-0.28824
0.310285
0.0140726
0.0798372
0.0556088
0.176125
0.125526
0.0912747
0.0066954
0.0178928
0.013193
-0.520891
0.181341
0.179534
0.183383
0.184469
0.18528
0.00833764
0.0103561
0.00694796
0.0110608
0.0111146
0.00889329
0.150797
0.163889
-0.510723
0.18345
0.185644
0.185488
0.178968
0.184199
0.182187
0.0157311
0.0102613
0.00953359
-0.0902401
0.0256034
0.346461
0.461388
0.291604
0.0673921
-0.175568
0.242983
0.312455
0.208097
0.378337
0.346645
0.376071
-0.138044
-0.28517
-0.128534
-0.183336
0.174294
0.173286
0.165685
0.163623
0.179225
0.177505
0.181542
0.178824
0.181287
0.182508
-0.190489
-0.137143
-0.348942
-0.413466
0.273656
0.412481
0.204545
0.207241
0.127774
0.0186898
0.0214074
0.0145751
0.0122099
0.0435976
0.0573876
0.0754369
0.0591498
0.049252
0.0396806
0.0427859
0.0505792
0.0533211
0.170537
0.168591
0.174917
0.181831
0.133238
0.135869
0.107658
0.123548
0.1136
0.0582393
0.0886303
0.0681523
0.00787541
0.00762765
0.00556031
0.0215973
0.0262822
0.0132698
0.0106539
0.0133245
0.0107233
0.00991103
0.0165479
0.0192258
-0.518335
-0.598852
0.653984
0.58125
-0.548196
0.17009
0.176481
0.173138
0.178487
0.181529
0.182091
0.179822
0.176871
0.164827
0.16712
0.162764
0.16301
-0.449732
-0.586749
-0.409879
-0.476383
-0.207436
0.289545
0.0369086
-0.0223429
-0.0261863
0.182884
0.543597
0.357966
0.413873
0.439016
-0.70166
-0.302367
-0.632404
-0.0216836
-0.191824
0.346834
0.400953
0.425609
0.370197
0.317418
-0.462292
0.176783
-0.385383
-0.351342
-0.161574
-0.256163
0.391669
0.330808
0.338328
0.363001
0.385992
0.338412
0.319545
0.31884
0.35451
0.359179
0.151036
-0.0549561
-0.102948
-0.13746
0.314566
0.193919
0.248815
0.167055
0.169075
0.172097
0.17108
0.155542
0.160978
0.155996
0.162709
0.164951
0.175028
0.174415
0.170333
0.172919
-0.0868162
-0.0584841
-0.31782
-0.516531
-0.43921
-0.514177
-0.434225
-0.376614
-0.23229
-0.386046
-0.0272958
-0.564197
-0.600952
-0.528292
-0.64464
-0.482305
-0.515575
0.0780913
0.142289
0.11763
0.145563
0.178719
0.179003
0.0326411
0.0347277
0.0136115
0.0217583
0.0748096
0.0879875
0.099051
0.0370556
0.0378631
0.0231005
0.0223609
0.0273726
0.0133249
0.0213503
0.0363475
0.0204591
0.022439
0.0263306
0.0296557
0.0349039
0.0377892
0.163325
0.165848
0.164672
0.17783
0.188577
0.202723
0.172822
0.149782
0.142563
0.14482
0.12381
0.13052
0.128534
0.138007
0.156241
0.162626
0.160737
0.163219
0.150457
0.151246
0.138371
0.142225
0.124227
0.106607
0.0960273
0.0169916
0.010866
0.013835
0.0148702
0.0104393
0.0121233
0.0375288
0.029999
0.0342421
0.0298536
0.0331605
0.0169431
0.0167925
-0.50976
-0.516832
-0.541863
-0.560349
-0.633597
0.530848
0.633713
0.466777
0.24052
0.192245
0.472202
0.629255
0.338869
0.380818
0.476715
0.13733
0.407201
0.175323
0.175144
0.172693
0.172239
0.173003
-0.357923
-0.260944
-0.250896
-0.200293
-0.0851915
0.0233019
-0.0414045
-0.140582
-0.00427798
0.0257618
0.284756
0.30066
0.244712
0.269848
0.268327
0.0973995
0.1728
0.220949
0.181733
0.222582
0.242797
0.207201
0.235271
0.18546
0.145999
0.145698
0.0945275
0.109788
0.0894385
0.0748686
0.166256
0.146119
0.15559
0.147577
0.167182
0.195561
0.189076
0.212528
0.228021
0.155649
0.116591
0.126058
0.154137
0.115129
0.127245
0.141009
-0.173218
-0.272066
-0.192051
-0.459172
-0.358748
-0.375375
-0.418091
-0.400928
-0.121727
-0.804796
-0.766105
-1.40168
0.112907
0.577971
0.344142
0.309711
0.381595
0.356007
0.355739
0.390523
0.399422
0.306261
0.322937
0.32579
0.28102
0.306279
0.333002
0.331984
0.154271
0.0440248
0.0318648
0.0002077
-0.124639
-0.0943213
0.116666
0.0395331
-0.0355986
-0.0292779
0.133193
0.0302057
0.0884275
0.125832
0.0597241
0.0176618
0.205337
0.275775
0.266447
0.237806
0.159768
0.173493
0.196193
0.22788
0.255712
0.294697
0.164082
0.166871
0.168932
0.167625
0.163058
0.166228
0.166392
0.16845
0.16907
0.171951
0.171173
0.00694923
0.00413452
-0.0305621
-0.00896987
-0.129944
-0.165278
-0.208166
-0.20317
0.00874164
-0.0122478
-0.0857833
-0.0454532
-0.0250099
-0.00995174
0.0312593
0.044667
-0.0667974
-0.10151
-0.223406
0.0485918
0.0930673
-0.0528385
-0.218556
-0.108541
-0.0294107
0.044226
0.065328
0.0587102
0.06113
0.0590483
0.0296675
0.0258618
0.0255836
0.0311724
0.0307542
0.0232922
0.0210405
0.0229451
0.0233991
0.0227531
0.0219673
0.150035
0.14478
0.147353
0.142159
0.141054
0.152721
0.156057
0.157641
0.162269
0.163934
0.155605
0.159686
0.163054
0.0258701
0.0207261
0.0228237
0.0222719
0.0215251
0.0191049
0.0192445
-0.104203
-0.459175
-0.454905
-0.420826
-0.497586
-0.459433
0.140376
0.0790223
0.113201
0.276162
0.171467
0.0553203
0.116661
0.238853
-0.0111204
0.137574
-0.00375431
0.485491
0.358755
0.503132
0.187485
-0.134514
0.00972253
0.0579125
-0.13431
-0.0580092
-0.0286606
-0.142899
-0.109813
-0.0817846
0.0133679
-0.110434
-0.148522
-0.379749
-0.195743
-0.0694706
-0.086934
0.0337953
0.0853657
-0.0957985
-0.200658
-0.235004
0.271888
0.293239
0.309768
0.281763
0.302729
0.231493
0.221239
0.239018
0.249411
0.244221
-1.13609
-0.846355
-1.79159
-1.10761
-0.651789
0.145506
0.100321
0.377735
0.280214
0.356225
0.339954
0.306643
0.272769
0.277396
0.313196
0.0272376
0.13428
0.11056
0.11332
0.0201377
-0.042223
0.240136
0.233485
0.274674
0.2986
0.266407
0.300093
0.159633
0.159311
0.162296
0.159113
0.155415
0.157357
0.0168721
0.0223723
-0.0521504
-0.0827061
-0.0965016
-0.0454533
0.0294942
0.0274876
0.0240633
0.0241435
0.0279277
0.0303665
-0.154054
-0.207968
-0.355007
-0.23151
-0.35687
-0.443125
-0.451795
-0.377486
-0.255961
-0.265466
0.0119572
0.267208
0.122585
0.214091
-0.0475783
0.029861
0.113791
0.0889787
0.118493
0.0171528
0.108175
-0.161087
-0.655813
-0.564563
0.391397
0.418327
0.208437
0.0195608
-0.2025
-0.0117802
0.187119
0.130957
0.171056
0.235628
0.23341
-0.370152
-0.300077
-0.0679083
0.15405
-0.168063
-0.172039
-0.193076
-0.00146151
-0.0655574
)
;

boundaryField
{
    wall-4
    {
        type            zeroGradient;
    }
    velocity-inlet-5
    {
        type            zeroGradient;
    }
    velocity-inlet-6
    {
        type            zeroGradient;
    }
    pressure-outlet-7
    {
        type            fixedValue;
        value           uniform 0;
    }
    wall-8
    {
        type            zeroGradient;
    }
    frontAndBackPlanes
    {
        type            empty;
    }
}


// ************************************************************************* //
