/*--------------------------------*- C++ -*----------------------------------*\
| =========                 |                                                 |
| \\      /  F ield         | OpenFOAM: The Open Source CFD Toolbox           |
|  \\    /   O peration     | Version:  2412                                  |
|   \\  /    A nd           | Website:  www.openfoam.com                      |
|    \\/     M anipulation  |                                                 |
\*---------------------------------------------------------------------------*/
FoamFile
{
    version     2.0;
    format      ascii;
    arch        "LSB;label=32;scalar=64";
    class       surfaceScalarField;
    location    "15";
    object      phi;
}
// * * * * * * * * * * * * * * * * * * * * * * * * * * * * * * * * * * * * * //

dimensions      [0 3 -1 0 0 0 0];

oriented        oriented;

internalField   nonuniform List<scalar> 
1300
(
3.75095
5.62643
-6.16076
3.75095
-5.98247
5.62643
-4.51645
4.51645
-1.41672
1.41672
1.87686
1.87409
-3.74919
3.74919
-4.61985
4.61985
-2.77739
2.77739
-5.24635
5.24635
-5.06853
5.06853
4.68297
-4.68297
-4.87513
4.87513
-1.84092
1.84092
-3.71887
3.71887
3.1735
-3.1735
-4.95546
4.95546
-0.493353
0.493353
-0.553798
4.30475
3.19716
3.19716
-2.49735
2.49735
-4.85096
4.85096
6.21818
-6.21818
9.35369
-9.35369
-3.19293
-3.40298
1.33247
-8.13767
-4.65
-4.65
-8.44043
8.44043
-2.814
2.81243
2.92229
-2.92229
-1.72547
1.72547
-4.50091
-0.0155349
-4.50091
4.48179
0.0346619
4.48179
-1.5273
0.11058
-1.5273
4.08285
-4.08285
1.25051
0.166212
1.25051
3.06739
-3.06739
-1.87722
3.75408
1.87373
-1.87191
6.17666
-1.87904
3.75314
-5.04605
5.04605
-3.48512
-0.264072
-3.48512
4.07134
-0.322147
4.07134
-5.26214
5.26214
-4.56678
-0.0530785
-4.56678
4.67471
-0.0548589
4.67471
2.9982
-2.9982
-2.80854
0.0311499
-2.80854
2.72469
0.0526943
2.72469
0.353612
5.27282
-5.98004
8.79248
-5.27282
0.0264629
5.20842
0.0379318
5.20842
-5.10624
0.0377174
-5.10624
5.00999
0.0585378
5.00999
4.77614
-0.0931707
4.77614
-4.79722
0.114246
-4.79722
-3.32242
-3.40629
-4.97711
0.101977
-4.97711
-1.89408
0.0531651
-1.89408
1.7908
0.0501234
1.7908
-3.52457
3.52457
-4.09341
0.374537
-4.09341
3.12906
0.0444415
3.12906
1.86859
1.88236
5.61955
-5.61955
2.44605
-4.89318
-0.0622784
-4.89318
-5.02497
-4.32871
5.02497
-0.0695139
-0.805117
0.311763
-0.805117
3.15861
0.0385442
3.15861
2.65375
0.0709399
-2.65375
0.156406
3.40693
-3.40693
1.85055
0.646801
1.85055
-5.57117
5.57117
4.94919
0.0608
-4.94919
0.0982255
6.1575
0.0606878
6.1575
-6.19959
-0.018594
-6.19959
3.37021
-6.77319
-3.4092
4.76792
0.107213
-4.76792
0.117921
2.90942
0.012869
2.90942
-2.90197
2.90197
-2.96922
0.0469304
-2.96922
-2.15844
0.432969
-2.15844
1.38812
0.337355
1.38812
-4.38678
-0.114135
-4.38678
-4.38076
0.287349
4.38076
0.101031
0.875358
-0.875358
-1.63611
0.108806
-1.63611
-4.22905
-0.157734
4.22905
-0.1462
-3.96556
-0.117282
-3.96556
-3.02266
0.0534387
3.02266
0.0447341
3.1126
0.0460119
-3.1126
0.045208
-1.87097
3.75333
-1.87998
3.75371
-4.82799
-0.21806
-4.82799
5.18494
-0.138895
5.18494
3.46172
0.257147
-3.46172
-0.0233957
4.32589
-0.25455
4.32589
-5.31149
0.0493511
-5.31149
5.20372
0.058422
5.20372
4.47377
-0.147881
-4.47377
-0.0930067
4.74146
-0.0667504
4.74146
3.04874
-0.0505395
3.04874
-2.96027
-0.0379339
-2.96027
2.83126
-2.83126
2.82898
0.00228653
-2.82898
0.0204374
-11.1326
11.114
-0.0349276
-11.0977
5.1735
5.1735
4.20309
0.573046
4.20309
-5.00931
0.212099
-5.00931
3.32271
-6.73191
3.40105
-6.72347
3.39522
-11.5329
3.34192
-6.7482
5.12993
-5.12993
5.06494
0.0649937
-5.06494
0.0878306
-1.90251
0.00842671
-1.90251
-2.93092
-0.593644
-2.93092
3.96971
-0.445148
3.96971
-3.02863
3.02863
-3.08247
0.053832
3.08247
0.0465918
4.81673
-0.0752706
-4.81673
-0.0764483
1.04773
0.202778
-1.04773
0.242614
3.59892
-0.191991
3.59892
-3.23298
-0.173951
-3.23298
-1.8641
-0.0384075
1.8641
-0.0135567
-5.81728
0.246116
-5.81728
-11.1908
0.0930602
-11.1528
-6.10653
-6.10653
2.3339
11.1264
-2.92706
-0.0332087
2.92706
-0.0176389
2.96921
0.0594254
-2.96921
0.0672407
-2.85155
0.0202891
2.85155
0.0504181
-2.55744
0.399002
-2.55744
-0.9706
0.9706
-1.14299
0.172392
1.14299
0.245123
1.13999
-0.264631
1.13999
1.72153
0.0692708
-1.72153
0.08542
-3.86148
-0.104081
-3.86148
5.28596
-0.101016
5.28596
-3.12019
-0.112789
3.12019
-0.0714509
-0.0332745
11.1473
-5.14022
0.0339777
5.14022
-11.208
11.242
-3.24292
0.685476
3.24292
0.960177
5.29672
0.27445
-5.29672
0.287402
5.16899
0.0347336
-5.16899
0.0390545
-2.42535
-0.505568
-2.42535
-4.46845
-0.35954
4.46845
-0.498733
-11.475
-0.203491
11.6784
-11.4164
6.02077
0.136722
-6.02077
11.3787
-0.852883
-0.0224752
0.852883
0.117717
1.46306
-0.323068
1.46306
3.76184
-0.162918
-3.76184
-0.0996438
-5.32749
0.0159903
5.32749
-0.0415267
-1.91232
-0.513034
1.91232
-0.449264
-4.26652
4.30506
1.91015
-3.34575
-3.42744
-7.67446
1.85117
1.90216
4.29722
-7.12677
-4.40612
-7.00885
7.27562
-6.98822
-9.30067
9.20749
7.4421
-7.55938
-5.77671
5.82331
6.48008
-6.43535
1.87933
1.87475
7.49623
-7.7603
-13.8343
13.6162
9.93455
-9.98763
11.3841
-11.3347
-12.7327
12.7674
-5.75159
5.78274
-6.62144
6.5835
-6.79517
6.72372
-3.28439
-3.43908
9.20419
-9.10222
11.7256
-11.7879
-7.24322
7.61776
3.38388
0.921182
3.42989
-1.88137
3.7607
-1.87177
3.78192
3.40848
-6.69287
3.32343
-6.75087
6.08328
5.64236
-6.01377
-1.66069
-5.84798
5.86085
-5.83028
5.8807
8.94272
-8.95826
-1.88548
3.76023
-1.86823
3.77039
-3.42213
-2.35459
3.37769
0.919534
5.63516
3.56903
-5.74238
-1.26647
-7.64556
7.48264
-7.9488
7.77485
-0.459093
5.82891
-5.36982
4.39187
-1.55696
7.38587
5.71866
5.93076
5.86862
-5.59417
1.1196
-6.48942
-6.39119
-2.68898
2.79779
2.67269
-2.50648
5.87152
1.57058
5.72532
-5.45617
-2.10322
-5.56025
3.81449
2.00882
3.86832
4.04435
2.43573
4.09779
3.02901
-3.03677
0.00775524
-3.0588
6.08781
0.723463
-5.41339
-4.49385
5.56283
1.9334
5.24068
-4.69282
-3.06748
-4.71622
-8.91849
-4.91578
-9.27803
8.21061
5.40561
8.07172
-8.90039
8.85887
6.68441
3.25015
6.62955
-6.36544
-3.62219
-6.45844
10.5775
-2.28941
-8.28808
-7.26733
-5.46538
7.20891
4.17516
7.71009
5.05735
7.74915
3.45368
7.12381
-7.62883
2.16346
-3.84919
-1.9024
-3.82875
3.74308
2.03967
3.79577
-4.12785
-2.49359
-4.16106
-4.19763
-2.59754
4.24817
2.33533
-4.30873
-3.64008
4.42151
2.30221
3.11197
-7.51808
3.63623
-7.07531
-6.4247
-2.67751
-6.33687
4.16743
2.60552
-6.77295
-2.52544
10.937
-5.29465
9.27631
-7.25704
-4.53088
-7.33348
-6.44436
-0.798856
-6.15702
-8.92304
8.41747
-9.10281
8.65766
14.1376
-7.09145
-7.04615
-3.97038
-2.46497
3.92517
-0.49528
-3.71081
3.71857
0.049887
3.8318
4.75298
4.2577
-3.88597
-1.94431
-3.81873
3.85618
2.02452
3.87647
6.68072
2.262
6.71538
-6.43928
-2.51898
-6.55341
9.09967
-8.6667
2.92538
-2.96379
5.19277
2.58209
-5.00077
-2.64479
6.01555
-3.03885
-2.9767
-12.2415
10.5944
1.64713
-4.85563
-0.463765
0.0295886
-5.51326
-3.7874
5.39901
0.531749
11.1261
7.33872
-5.51466
5.76078
6.16378
6.22458
-0.166607
5.8577
-5.17222
5.2014
-2.22933
-2.97207
5.26643
-5.42417
-1.28698
-5.25541
3.96843
0.301154
1.89513
-1.58337
-2.09203
-0.596953
-2.00661
1.61406
1.05863
1.81684
0.965633
1.83216
-2.98038
0.563742
2.41664
-2.01475
-1.94273
-3.57393
-0.899399
4.47333
5.46927
2.01337
-5.36962
-0.190622
2.73563
-2.68551
-0.835616
-2.73831
1.96887
-2.80449
-3.5049
-1.76395
5.26885
-3.37041
-0.448321
3.31098
0.557341
-3.77673
-2.07125
3.7298
0.367989
-3.13838
6.2515
-3.11313
-5.08269
2.53251
3.5553
4.54133
-4.79469
2.43813
2.35656
-1.2394
5.17639
0.0642866
4.92184
-6.2929
3.22543
4.67793
2.93982
-4.93508
0.218865
-6.07404
10.9489
-7.85355
-3.0954
7.22463
3.72432
7.71739
6.42022
-6.15454
13.8719
0.184649
-8.0382
5.88939
-2.94957
5.30763
-8.2572
-11.7279
3.68966
-8.76549
9.26522
-0.499733
-2.43829
-6.4621
11.2038
-1.5086
-9.69518
6.56312
-5.70768
-5.02756
10.7352
-7.99709
8.64975
-3.12652
-5.52323
-7.31403
-4.02068
7.29804
1.56082
-9.9179
12.0814
-2.79409
5.8562
0.773345
5.78945
4.53595
-6.01866
1.48272
3.46114
-6.58767
3.90471
-9.92337
-4.97568
9.68532
-4.70964
-7.6532
-6.87666
-0.776535
2.01028
10.0711
-7.06763
5.3994
1.66824
3.34878
0.527692
-3.35107
-0.477688
0.353261
4.45203
-4.80529
4.14903
4.21997
3.37961
1.07242
3.80689
2.05396
-3.78925
-0.371805
-4.04092
1.44338
-1.70559
-3.56729
5.01067
-3.99094
0.423646
-2.66062
-3.50865
6.16927
-4.56302
3.09149
3.16001
5.11601
-4.87643
1.36778
-2.4114
-2.46503
2.62316
-4.32875
1.91569
3.09499
4.21789
0.577814
4.93946
4.74586
-7.54498
0.469665
8.31489
-7.04842
1.74158
6.00756
-7.14098
0.264317
-6.07255
1.08229
-6.37694
-5.69066
5.49201
-6.29087
-2.76519
5.97898
0.736401
-6.08001
-0.0770028
-5.95075
-2.97229
-6.46379
-2.97972
-6.12308
-9.13426
-1.70074
-7.43352
6.71673
-6.56278
-2.71526
7.06151
1.59615
-7.25298
7.2305
-7.34962
7.02655
0.094932
3.62364
4.35264
1.88767
-2.38424
4.27191
-4.98425
7.24625
-8.42566
3.44141
4.01108
-6.53006
-4.41458
4.99097
4.1087
5.32833
8.83338
-10.7324
1.89903
-10.8527
12.1537
-1.30102
-16.5675
5.71487
-7.73415
2.68051
0.244871
2.68894
0.674536
2.38659
-3.06112
-2.28925
-2.30281
-2.26522
-3.27842
5.54364
1.1362
-3.3272
2.19101
-3.40682
4.54302
-0.121625
-3.20558
5.18603
-2.79944
5.4309
-3.52845
1.90245
3.21611
5.4708
-2.2547
4.18292
-1.60083
1.74028
-3.99498
-1.53813
-2.98299
5.02266
-3.18628
3.60992
-0.217367
3.82729
-4.00743
0.968574
-0.627818
3.59215
3.74856
4.09959
-3.02717
2.87209
-4.47292
-1.12289
-3.8951
-0.800118
-0.365039
-3.69105
4.05609
6.08524
-6.45028
-5.34833
9.66205
-4.31371
7.75833
-5.43584
-2.3225
-4.285
-4.3817
3.88599
1.9717
9.73003
0.201473
-5.63731
-4.97075
-4.01057
3.19808
2.00332
-2.07469
3.72182
2.0451
-0.149969
0.636231
1.18061
1.89827
-1.26204
0.160147
1.73812
-1.42322
2.02408
0.711552
-2.09335
0.0867393
-1.41087
3.37974
1.00577
-2.0644
0.802361
1.12896
-3.35829
4.66592
-2.31697
-2.34896
5.79489
1.19768
-3.51465
4.05773
-3.75657
2.28145
-3.18085
-1.2332
-4.98977
-3.41919
-2.43426
4.62527
-3.10938
5.12275
1.12037
-4.93213
6.05249
-3.46704
1.7031
-3.03503
3.74658
-1.07598
-1.95905
2.66912
2.59973
-2.78934
0.0510297
-0.120225
2.25364
-2.37386
-0.550853
-2.5656
-4.54413
4.91212
-2.1635
4.60164
2.10841
-1.92422
6.52586
1.81725
-3.74147
-3.26544
-3.71376
-1.38491
3.15642
-1.23864
-5.21981
-6.76187
5.36769
-0.445844
-7.32026
9.82638
-2.50612
-5.38686
2.16144
5.0632
-7.97482
1.38716
-4.07012
5.75627
5.82055
5.37471
-10.9084
1.21321
-5.50279
2.9285
-8.43129
6.65281
-4.75063
8.44029
-10.7174
8.00218
-9.12129
5.34489
-3.0864
5.60009
-4.11738
2.68799
-6.70867
-5.14785
6.97227
-3.72212
7.74561
-4.21903
11.9646
-7.01312
7.01693
4.94772
-1.46947
-5.86401
-6.8671
5.39762
0.149833
5.93928
4.94821
-2.89425
4.5764
2.24593
-4.65734
-2.08281
-6.51937
1.86203
-3.35936
-1.89566
3.7577
3.22034
3.74804
1.29267
-3.27035
6.80782
-7.58436
-2.09819
-3.59248
6.7891
-1.39147
4.11872
-7.7112
-2.25821
4.8103
-0.146355
-4.66394
2.28116
-5.04635
1.03727
-6.08361
5.25361
-5.33061
2.1676
-9.90175
-5.08538
-4.96766
-2.25869
-5.09093
-7.58982
5.33112
-1.87494
5.35556
-8.60677
8.46042
-3.54691
8.87803
-5.33408
-1.12971
5.78334
1.24321
10.1212
0.17817
-4.59275
-1.83858
3.89666
-2.05807
1.35949
-3.51288
0.383772
2.50014
3.29475
-6.46857
-0.0614959
-4.65424
-3.88533
7.99403
5.77671
11.862
1.12954
9.24261
-1.24858
10.3722
4.07975
4.32487
-2.87927
4.7783
1.17683
4.61824
-0.852097
2.75455
1.83684
1.89001
0.7955
2.2894
1.45916
3.25798
0.196855
-2.10596
4.65828
-8.66885
-0.979031
-8.0958
1.11169
5.73196
-4.62027
3.11518
-1.11186
1.05711
0.256276
-1.82054
1.56426
-2.71579
-1.97051
-0.232386
-1.51214
2.3145
1.8676
-2.08212
-0.633679
0.2585
-3.67769
2.92235
-2.87132
-0.271589
5.78091
-2.72458
0.350719
-1.02148
-2.21488
-2.81183
2.7251
6.25449
0.271371
3.14136
5.18349
3.11224
0.217997
6.35096
-6.85069
-3.57241
-5.63748
1.01534
6.07853
2.14814
7.92293
7.09586
5.70439
-2.00681
-9.59117
6.85641
-2.07811
5.55538
-0.891441
-5.19217
4.89666
2.34958
-5.63306
0.302454
-4.88972
-6.96782
-0.223391
8.68381
-9.89786
8.76815
5.79586
1.63765
-4.30035
-0.66731
4.12796
0.196913
10.5691
-1.12217
-6.89268
8.01484
-4.60979
3.63076
0.945639
2.77618
2.5099
1.39804
-5.49464
-10.1149
-1.76307
-1.59522
-4.11202
0.361303
-2.2289
6.28383
-2.65307
3.96133
5.36177
6.41888
-2.19465
-4.25563
6.50836
-2.54703
3.87186
)
;

boundaryField
{
    wall-4
    {
        type            calculated;
        value           uniform 0;
    }
    velocity-inlet-5
    {
        type            calculated;
        value           uniform -3.75095;
    }
    velocity-inlet-6
    {
        type            calculated;
        value           uniform -5.62643;
    }
    pressure-outlet-7
    {
        type            calculated;
        value           nonuniform List<scalar> 8(6.16076 5.98247 6.59591 6.8052 6.7287 6.77941 6.72377 6.73713);
    }
    wall-8
    {
        type            calculated;
        value           uniform 0;
    }
    frontAndBackPlanes
    {
        type            empty;
    }
}


// ************************************************************************* //
