/*--------------------------------*- C++ -*----------------------------------*\
| =========                 |                                                 |
| \\      /  F ield         | OpenFOAM: The Open Source CFD Toolbox           |
|  \\    /   O peration     | Version:  2412                                  |
|   \\  /    A nd           | Website:  www.openfoam.com                      |
|    \\/     M anipulation  |                                                 |
\*---------------------------------------------------------------------------*/
FoamFile
{
    version     2.0;
    format      ascii;
    arch        "LSB;label=32;scalar=64";
    class       volVectorField;
    location    "15";
    object      U;
}
// * * * * * * * * * * * * * * * * * * * * * * * * * * * * * * * * * * * * * //

dimensions      [0 1 -1 0 0 0 0];

internalField   nonuniform List<vector> 
918
(
(0.985211 -0.000444767 0)
(0.00499185 2.96626 0)
(-0.0050353 1.63335 0)
(0.979755 0.00207655 0)
(-0.000549369 1.59322 2.57195e-21)
(-0.00702518 2.94877 -1.80548e-18)
(0.849974 1.19302 7.53582e-19)
(0.483859 0.228648 -8.53302e-21)
(0.99992 -0.00036039 0)
(-0.00585999 1.09923 0)
(-0.00051187 1.33304 0)
(0.814027 -0.0062897 0)
(0.0111529 2.93027 0)
(0.0014237 2.79504 0)
(-0.0173823 3.16731 1.11434e-18)
(-0.00500735 1.50769 -1.4946e-20)
(0.582808 0.102676 5.28322e-19)
(0.167394 1.16925 6.62371e-19)
(0.964259 0.0052224 0)
(-0.00225228 1.45733 0)
(0.164254 0.269748 -4.52266e-19)
(1.00155 -0.00518107 0)
(1.00023 -0.00980581 0)
(0.975653 -0.00653712 0)
(0.731286 -0.0248725 0)
(0.0182925 2.62974 0)
(-0.0152342 2.91019 6.17674e-19)
(-0.0133293 1.66014 0)
(-0.0132313 1.7621 0)
(-0.0124394 1.65642 0)
(-0.000815392 1.81348 0)
(-0.000537092 1.61162 -2.0356e-21)
(-0.00446437 1.51578 0)
(-0.0206221 2.98758 -6.28898e-23)
(-0.016712 3.00531 1.40349e-18)
(0.0021099 3.00022 0)
(0.865992 -0.00663757 0)
(0.38017 0.917129 -4.68363e-20)
(0.843266 1.20779 -1.0694e-18)
(0.990575 1.05941 9.97887e-19)
(0.705535 1.29746 -1.76179e-19)
(0.710348 1.27385 1.00202e-18)
(0.511862 0.298991 8.32583e-21)
(0.504545 0.201775 0)
(1.18902 0.573297 0)
(0.479254 0.31767 3.90968e-20)
(0.441242 0.222134 -4.05712e-20)
(0.920402 -0.00673589 0)
(1.00042 2.98273e-05 0)
(0.999941 0.000362471 0)
(1.00365 -0.00773773 0)
(1.00086 -0.0010214 0)
(1.00015 6.38333e-06 0)
(0.057844 1.55975 -4.67199e-19)
(-0.0253631 1.16727 0)
(0.00672463 1.00409 0)
(-0.0389554 1.26424 0)
(-0.0175069 1.18593 0)
(-0.00615244 1.57444 0)
(-0.0036755 1.49485 0)
(-0.00155379 1.32825 0)
(-0.0108063 1.52149 0)
(-0.00690736 1.3481 0)
(0.890482 -0.000940156 0)
(0.895724 0.00871138 0)
(0.82711 0.000535802 0)
(0.887981 0.0134262 0)
(0.799539 -0.00815551 0)
(0.0147155 3.00039 6.59712e-19)
(0.0115488 3.00787 0)
(0.00614597 3.00289 0)
(0.0135696 2.99732 7.33657e-24)
(0.00800395 2.95843 -9.80495e-19)
(0.0145137 2.98202 0)
(0.0108131 2.90359 0)
(0.0248232 2.93028 1.29243e-24)
(0.00413931 2.82545 0)
(0.0319689 2.91556 0)
(-0.00656712 2.74411 0)
(0.310517 3.56703 0)
(-0.132791 3.6485 0)
(0.140805 3.25832 1.03705e-18)
(-0.0117481 2.99152 0)
(-0.0115321 1.79364 0)
(-0.00440993 1.64068 1.47442e-20)
(-0.00571195 1.52372 -2.36561e-20)
(0.646019 0.166278 -1.81998e-19)
(0.606106 0.0667386 -1.7603e-19)
(0.611019 0.194337 -5.43512e-19)
(0.564325 0.129231 -3.63512e-19)
(0.246808 1.01319 0)
(0.247914 1.27249 -6.52922e-19)
(0.324791 1.2661 1.07724e-18)
(0.988204 0.00843177 0)
(0.943971 0.00640433 0)
(1.00032 0.00057201 0)
(1.00282 0.00933645 0)
(1.00271 0.00844888 -9.59116e-19)
(0.99204 0.00980542 7.24215e-19)
(-0.0130541 1.57659 0)
(-0.00797765 1.44394 0)
(-0.0187856 1.66838 0)
(-0.0155403 1.60936 0)
(-0.000774139 1.4822 0)
(0.239117 0.283249 1.39382e-19)
(0.283244 0.265087 0)
(0.993485 -0.00840694 0)
(0.954169 -0.00681294 0)
(0.862718 0.0171152 0)
(0.829698 0.0337802 0)
(0.778175 -0.0140063 0)
(1.01859 -0.00581334 0)
(0.776348 0.0450265 0)
(0.646675 -0.0168759 7.00342e-19)
(-0.03515 2.86635 2.90965e-19)
(0.0434313 2.90788 0)
(0.0573967 2.88284 0)
(-0.00582062 2.69635 0)
(-0.0128769 2.98529 5.64562e-19)
(-0.0183354 2.89558 0)
(-0.0153996 2.98813 -1.79298e-18)
(-0.0134073 2.9252 6.20441e-19)
(-0.0103498 1.81284 0)
(-0.00827432 1.80769 0)
(-0.00108173 1.64078 -2.8633e-22)
(-0.00306133 1.6125 0)
(-0.0059201 1.50823 0)
(0.930272 -0.00357674 0)
(0.858912 -0.00335641 0)
(0.857193 0.0091426 0)
(0.94002 -0.00414131 0)
(0.8826 -0.00611765 0)
(0.494487 1.11487 4.78323e-20)
(0.548638 1.17614 0)
(0.337576 0.845422 1.54216e-21)
(0.282469 0.706591 0)
(0.956549 1.08834 -2.88426e-19)
(1.06991 0.897543 5.92836e-19)
(0.427962 1.34273 0)
(0.559725 1.35996 0)
(0.540791 1.29551 0)
(0.0980168 0.122775 -1.01181e-19)
(0.543434 0.273893 0)
(0.528705 0.176521 1.05063e-19)
(1.04204 0.94594 0)
(1.11146 0.792101 0)
(1.1379 0.738273 -5.20597e-19)
(1.16728 0.631134 0)
(1.21826 0.413267 6.03386e-20)
(0.953517 -0.00727921 0)
(0.962031 -0.00937781 0)
(0.901463 -0.00820768 0)
(0.98406 -0.0089476 0)
(0.975423 -0.00870093 0)
(0.937245 -0.00625504 0)
(1.00004 0.00224211 0)
(1.00086 0.00147425 0)
(0.999903 0.000815508 0)
(0.0670859 1.76015 2.57725e-19)
(0.0844254 1.51643 0)
(0.0381799 1.77201 1.86485e-19)
(0.0348991 1.59024 -3.40346e-19)
(0.0854344 1.1611 -5.45271e-19)
(-0.00829796 1.10819 0)
(0.105944 1.0318 0)
(-0.0276036 1.36734 0)
(-0.00468849 1.25642 0)
(-0.00915765 1.70809 -1.06374e-21)
(-0.00495683 1.60247 0)
(-0.00638908 1.69137 -5.02022e-20)
(-0.00453517 1.56387 -3.48327e-21)
(-0.0166818 1.43362 0)
(-0.0099545 1.47499 0)
(-0.0028348 1.29785 0)
(-0.0145537 1.54017 0)
(-0.0103127 1.37195 0)
(0.963867 0.0140893 0)
(0.909363 0.00366484 0)
(0.946983 0.00891427 0)
(0.879808 0.00144098 0)
(0.828473 -0.00463449 0)
(0.914787 4.71303e-05 0)
(0.908084 0.00580923 0)
(0.828314 -0.00403329 0)
(0.00579196 3.06478 -5.74428e-21)
(0.0163178 3.0581 0)
(0.0146626 2.96914 0)
(0.00847557 2.87636 0)
(0.928345 3.98624 0)
(1.24379 3.31584 1.01945e-18)
(0.0711877 3.08388 0)
(-0.026471 2.91248 0)
(-0.0119954 1.79374 0)
(-0.0127232 1.79198 0)
(-0.0117872 1.79257 0)
(-0.00625085 1.80276 3.841e-21)
(-0.0116998 1.7981 0)
(-0.00705627 1.79632 0)
(-0.00141963 1.53879 1.40804e-21)
(-0.00349923 1.66853 2.87442e-20)
(-0.00498498 1.65671 2.41711e-20)
(-0.00382898 1.52847 0)
(0.676613 0.122281 2.65336e-19)
(0.627108 0.0311002 -2.58413e-19)
(0.175685 1.44328 0)
(0.295448 0.747129 -2.25525e-19)
(0.139904 1.52638 -7.39694e-19)
(0.205715 1.19486 7.37852e-19)
(0.901918 0.0100054 0)
(0.968254 0.0126871 0)
(0.975933 0.011482 0)
(0.925626 0.00854826 0)
(-0.0169762 1.55482 0)
(-0.0166867 1.56612 0)
(-0.0105767 1.40483 0)
(0.435799 0.333782 3.58211e-19)
(0.360202 0.312964 -4.35882e-19)
(0.377171 0.241942 0)
(1.13513 0.0828893 -5.6628e-21)
(1.11966 0.0380274 0)
(1.05198 0.0331962 0)
(0.965625 0.00525457 0)
(0.688316 0.0820294 0)
(0.714906 0.0611798 -1.12754e-18)
(0.629636 0.0121836 4.31645e-19)
(0.00995826 2.98199 3.85066e-19)
(-0.0326324 2.86765 4.7664e-20)
(0.0038513 3.05024 -1.24549e-20)
(0.0198927 3.04357 4.49044e-19)
(-0.0150271 2.99656 2.06738e-20)
(-0.0130177 2.94944 -8.37568e-23)
(-0.0173077 3.01202 -3.93523e-19)
(0.0148095 3.02406 2.84521e-19)
(0.0072915 3.03678 -4.4384e-19)
(0.941653 0.00837196 0)
(0.935933 0.00387247 0)
(0.864536 0.00118648 0)
(0.955677 0.0129176 0)
(0.940648 0.0136256 0)
(0.879644 0.00807386 0)
(0.917004 0.00322318 0)
(0.921836 0.0109721 0)
(0.835347 0.00188831 0)
(0.708966 1.40897 3.46243e-19)
(0.747497 1.52194 0)
(0.21911 0.368811 1.82452e-20)
(0.172753 0.535345 1.38234e-19)
(0.250627 0.655472 -7.89271e-20)
(0.212763 0.543353 1.41308e-19)
(0.279848 0.664166 5.98799e-19)
(0.118739 0.156437 1.89517e-19)
(0.591517 0.225462 -3.7458e-19)
(0.564874 0.246018 9.6099e-20)
(0.543491 0.157511 1.98569e-19)
(1.20582 0.468899 3.14358e-19)
(1.22129 0.260402 3.29909e-19)
(0.0226572 1.7667 1.60758e-19)
(0.0246103 1.61117 0)
(1.00598 0.0253655 0)
(0.976496 0.0163052 0)
(0.932896 -0.00153491 0)
(0.0110216 3.07478 0)
(0.0200029 2.94406 7.61863e-19)
(0.0165511 2.95651 0)
(0.00603793 2.85083 -7.55877e-19)
(0.00597368 3.09113 1.79758e-19)
(0.0074055 3.08236 0)
(0.783046 1.82843 -2.43738e-19)
(1.25058 2.51195 6.7276e-19)
(0.767199 1.96984 -1.50777e-18)
(0.0214202 2.98518 -2.69958e-19)
(0.0372139 3.00858 0)
(-0.0314489 2.8837 0)
(-0.000508712 1.66365 -4.85698e-21)
(-0.00132648 1.67105 -4.96612e-21)
(0.000654658 1.54802 -6.73056e-21)
(0.246669 1.32712 6.75573e-19)
(0.264831 0.499439 -4.62099e-19)
(0.0738375 1.70605 4.93957e-19)
(0.108918 1.62483 -6.11458e-19)
(0.1154 1.38847 8.1493e-20)
(0.00199035 3.11898 -1.04769e-18)
(0.0151047 3.11839 1.12588e-18)
(-0.00846984 2.98141 4.83235e-19)
(-0.00314814 2.97807 -4.20976e-19)
(-0.0212786 2.88228 -4.92161e-19)
(0.00887491 3.10009 -1.31476e-18)
(0.00259578 3.10527 1.28384e-18)
(0.195446 0.575169 0)
(0.139392 0.535721 -2.88003e-19)
(0.148875 0.198457 1.25077e-19)
(0.318793 0.801054 5.74407e-19)
(0.178875 0.203285 -8.79355e-19)
(1.21645 0.17072 -6.54879e-20)
(1.21937 0.311947 0)
(1.20367 0.118612 1.31572e-19)
(-0.003153 1.74383 -1.34076e-21)
(0.00864299 1.7628 0)
(0.00413617 1.60487 0)
(0.324632 1.18914 -2.35548e-19)
(0.366657 1.01907 -5.11867e-19)
(0.18167 0.313781 8.52612e-19)
(1.00576 -0.0110903 0)
(1.00775 -0.00780786 1.74417e-19)
(-0.0104418 1.80149 0)
(-0.0182339 1.81011 0)
(1.00244 0.00368715 1.94364e-21)
(1.00318 0.00919073 3.59443e-19)
(-0.00651993 1.80636 -5.04513e-21)
(-0.00527104 1.80514 0)
(0.0395863 3.18429 7.75256e-20)
(0.399287 3.50328 0)
(1.09987 0.645089 7.23268e-20)
(1.01173 0.0121347 -2.49413e-21)
(1.02025 -0.0142174 0)
(1.00175 0.000234513 3.55695e-23)
(-0.159213 1.33271 0)
(-0.0766411 2.26739 0)
(-0.0365941 1.74904 0)
(-0.044725 1.8907 6.6289e-20)
(-0.023377 1.84485 4.21324e-20)
(1.00351 0.0091391 2.31622e-21)
(1.04535 0.013303 0)
(1.07065 0.026961 0)
(-0.0137722 1.7926 0)
(-0.010378 1.81757 0)
(-0.0236831 1.79343 0)
(0.291899 1.22781 -4.5837e-19)
(1.01117 -0.00986915 0)
(1.00964 -0.014938 0)
(1.00234 0.0005743 2.19543e-19)
(1.00587 -0.00502011 -2.62708e-19)
(1.00095 -0.000894533 0)
(-0.0153228 1.79141 0)
(-0.0130044 1.79447 0)
(-0.0124317 1.79474 0)
(-0.0215387 1.79645 0)
(-0.0165996 1.79362 0)
(-0.0202142 1.79663 0)
(1.02419 -0.00252244 0)
(1.02209 0.0154552 -1.09134e-21)
(0.79882 1.25865 5.45006e-19)
(1.00291 0.000386058 -2.22395e-19)
(1.00336 0.00568412 2.67221e-19)
(1.00121 0.00200401 0)
(1.01113 0.00999644 2.15711e-19)
(1.00793 0.00817283 -2.68766e-19)
(1.00835 0.0142386 0)
(-0.00930679 1.8176 0)
(-0.00690445 1.81251 1.26205e-20)
(-0.00737248 1.81168 -8.69379e-21)
(1.18147 0.255107 -1.13433e-19)
(1.12036 0.0815022 0)
(0.0570349 3.07913 -4.72337e-19)
(0.0690688 2.85101 -3.88377e-20)
(0.146842 3.2006 7.20555e-19)
(0.141544 3.22896 1.992e-20)
(0.139167 3.24395 0)
(0.0227191 3.13897 9.85882e-20)
(0.0812122 3.16345 4.60434e-19)
(0.0743781 3.19089 -1.91825e-19)
(0.0271257 3.12816 0)
(0.70419 0.327447 0)
(0.623092 0.394395 0)
(1.08051 0.674287 -2.73542e-19)
(1.07394 0.807066 -1.01745e-19)
(1.13506 0.560978 0)
(1.16784 0.510541 0)
(1.01556 0.0130698 -4.01891e-19)
(1.01365 0.0149698 -1.53748e-21)
(1.02278 -0.0162703 0)
(1.01576 -0.0221426 0)
(1.00703 0.00301406 0)
(1.00994 0.00358647 0)
(1.004 0.00229953 0)
(1.00963 0.00693771 0)
(1.00722 0.00548086 0)
(1.00562 0.00493147 0)
(-0.155802 1.36629 0)
(-0.146618 1.40822 0)
(-0.143899 1.28337 0)
(-0.00849977 1.2592 0)
(-0.11235 2.36803 0)
(0.0370682 2.38819 -2.86447e-19)
(-0.0701132 2.26806 0)
(-0.0382683 2.1562 1.36649e-19)
(-0.0327819 1.99431 -1.30239e-19)
(-0.0305815 1.75412 0)
(-0.021077 1.76168 0)
(-0.0532979 1.72803 0)
(-0.0412778 1.68891 0)
(-0.0842369 1.841 -3.64259e-20)
(-0.0370514 1.85777 5.32068e-20)
(-0.0434846 1.88735 6.57979e-20)
(-0.0327658 1.87117 0)
(-0.0172755 1.84529 -9.37261e-20)
(-0.00848147 1.83632 -4.9052e-20)
(-0.0775522 1.83327 2.89236e-20)
(-0.0502797 1.84368 -6.94425e-20)
(-0.0574889 1.86047 -8.63662e-20)
(1.01136 0.0165373 3.92155e-19)
(1.01136 0.00589311 3.27316e-21)
(1.00545 0.0199095 -4.1161e-19)
(0.993236 0.0154684 5.21847e-19)
(1.04082 0.0208108 0)
(1.0387 0.00999041 0)
(1.06282 0.0412493 0)
(1.05002 0.0232545 0)
(1.05623 0.0115539 0)
(1.10414 0.0750657 0)
(1.08008 0.0475508 0)
(1.09077 0.0358673 0)
(-0.0105321 1.80754 -1.51326e-21)
(-0.0139549 1.79671 0)
(-0.0116932 1.8007 0)
(-0.0104269 1.82144 1.36997e-20)
(-0.0098192 1.82243 -6.37713e-22)
(-0.0186108 1.79266 1.36536e-20)
(-0.0183954 1.79321 -1.3816e-20)
(-0.0219362 1.79571 0)
(-0.0186825 1.79603 0)
(-0.0177558 1.79623 0)
(-0.0247561 1.79273 0)
(-0.0244729 1.78597 0)
(0.452637 1.31554 9.0765e-19)
(0.404097 1.38133 3.29296e-19)
(0.62894 2.43945 -1.52369e-19)
(0.29409 2.54951 3.92818e-19)
(0.562439 2.28287 -1.74571e-19)
(1.02064 -0.00885653 0)
(1.01586 -0.00909035 0)
(1.01642 -0.0148398 0)
(1.00807 -0.000918313 0)
(1.00446 -0.00127185 0)
(1.00715 -0.00488288 0)
(1.01019 -0.00359825 0)
(1.0135 -0.00457564 0)
(1.02265 0.0155285 3.83284e-19)
(1.01475 0.0217895 -4.84272e-19)
(1.02456 0.0106644 -3.82183e-19)
(1.02085 0.00715524 4.79387e-19)
(0.763417 1.28598 0)
(0.682238 1.35462 6.4981e-19)
(0.871446 1.18841 3.85744e-19)
(0.905277 1.16908 -5.12171e-19)
(1.13194 2.6197 -6.05916e-19)
(0.831897 0.100061 2.70111e-19)
(1.12213 0.0949799 0)
(1.16264 0.168692 9.72986e-20)
(1.15732 0.150791 4.16637e-21)
(0.971599 0.123801 0)
(0.148812 2.97285 7.59945e-20)
(0.128479 2.87886 -5.95697e-19)
(0.0444867 2.34796 4.45364e-19)
(0.115704 0.127183 -1.82119e-19)
(0.344504 3.43074 -4.64407e-19)
(0.198287 3.32321 0)
(0.238443 3.36689 6.04805e-19)
(0.256294 3.0434 -5.99838e-19)
(0.347657 3.19957 0)
(0.00800251 3.12059 2.42954e-20)
(0.0179835 3.12974 -3.16326e-19)
(0.0164492 3.12549 4.65597e-19)
(0.0388833 3.14011 0)
(0.0377388 3.15212 0)
(1.21369 2.61848 0)
(0.502422 0.840317 -2.08024e-19)
(1.01492 0.980809 -2.18195e-19)
(0.960609 1.05324 0)
(0.800325 0.956711 6.99333e-20)
(1.03688 0.869983 3.16711e-20)
(0.405631 0.480237 -4.99149e-19)
(0.727458 0.323413 -2.22697e-20)
(0.711469 0.286263 2.07471e-19)
(0.623752 0.427382 1.6753e-20)
(0.566173 0.418128 -6.89826e-19)
(0.708674 0.353444 0)
(0.709459 0.43076 3.44777e-19)
(0.71608 0.423431 0)
(0.667611 0.408772 0)
(0.673135 0.340925 0)
(0.734295 0.600068 1.12777e-19)
(1.17677 0.269977 -5.51722e-20)
(1.17807 0.40655 0)
(1.18788 0.364925 0)
(0.769402 0.214267 3.09157e-19)
(0.779271 0.525223 -1.70347e-19)
(0.698011 0.507143 -2.71708e-19)
(0.898802 0.39656 -2.46688e-19)
(1.01928 0.0172597 2.61149e-19)
(1.01747 0.0140025 -2.68433e-19)
(1.01362 0.0176183 0)
(1.02237 -0.00795811 0)
(1.02166 -0.0168678 -2.35663e-19)
(1.01183 -0.0207308 2.3279e-19)
(1.0355 0.00591317 0)
(1.02886 0.0119897 0)
(1.01156 0.00388718 0)
(1.01497 0.00819677 0)
(1.01765 0.00334248 0)
(1.01381 0.00102604 0)
(-0.14941 1.4821 0)
(-0.113371 1.52834 0)
(-0.193096 1.23084 2.77678e-19)
(0.28041 1.23602 2.75292e-19)
(0.0357373 1.20303 5.83333e-19)
(0.182385 1.19055 -2.82668e-19)
(-0.0318887 1.27584 0)
(-0.314614 1.97401 5.07782e-19)
(-0.349422 1.90764 0)
(0.469604 2.33961 2.57591e-19)
(0.303867 2.52241 1.71929e-19)
(-0.18583 1.84038 -4.48224e-19)
(0.290329 1.13368 2.96746e-19)
(0.012008 1.23151 2.35137e-19)
(0.371581 1.17582 7.43118e-19)
(0.112967 1.84826 -5.15068e-19)
(0.308828 1.88124 -5.62297e-19)
(-0.157501 1.95672 -1.99012e-20)
(-0.0349299 2.02702 0)
(-0.174352 2.07421 8.00154e-20)
(-0.14365 1.99745 0)
(-0.0363885 2.12641 -1.52032e-19)
(-0.0226098 2.05784 0)
(-0.0829687 1.78399 -2.81947e-20)
(-0.107948 1.81245 0)
(-0.104115 1.73674 0)
(-0.0871526 1.7572 3.18107e-20)
(-0.049906 1.91101 -8.36671e-21)
(-0.0375388 1.97328 1.45845e-19)
(-0.0372299 1.94655 1.03342e-21)
(-0.0428001 1.82026 2.49095e-20)
(-0.0546274 1.81276 -1.53014e-20)
(-0.0216798 1.77011 0)
(-0.0207833 1.77152 0)
(-0.157304 1.87534 4.37767e-20)
(-0.148398 1.75245 2.32713e-20)
(-0.138775 1.81975 -3.50305e-20)
(-0.220171 1.88992 0)
(-0.0157342 1.81183 -4.9794e-20)
(-0.0152177 1.82007 2.28716e-20)
(-0.0155149 1.81979 -7.14998e-21)
(-0.0357866 1.8183 -2.98544e-20)
(-0.0173489 1.82989 -1.15482e-20)
(-0.0198004 1.83811 5.97239e-20)
(1.02276 0.00477014 -2.56281e-19)
(1.01857 0.00927709 2.60845e-19)
(1.01731 0.000965443 0)
(0.998793 0.0452776 3.65688e-19)
(0.993314 0.0329012 -4.39111e-19)
(0.966331 0.0241676 5.09865e-19)
(0.993777 0.0805357 -4.83775e-20)
(1.02533 0.00366658 0)
(1.03154 0.0120939 2.15114e-19)
(1.02781 0.006028 -2.11271e-19)
(1.03646 0.0392827 -1.16093e-20)
(1.0405 0.0265435 1.03279e-19)
(1.03262 0.0524479 0)
(1.02733 0.0418863 -3.88994e-20)
(1.0226 0.0234438 0)
(1.02002 0.022267 0)
(1.03745 0.00690663 0)
(1.03149 0.00645699 0)
(1.02966 0.0238343 8.1053e-20)
(1.03179 0.0173694 -1.82248e-19)
(1.03093 0.0286909 -8.11334e-20)
(1.03065 0.0285655 -9.52707e-20)
(1.02908 0.0558904 1.67793e-19)
(1.06405 0.0508714 0)
(1.05771 0.0906063 0)
(-0.0159771 1.81228 -2.02261e-20)
(-0.0149697 1.80074 -1.76452e-21)
(-0.0167336 1.80044 0)
(-0.0109229 1.81377 2.15339e-20)
(-0.0101767 1.80867 3.14426e-21)
(-0.0103526 1.81281 -3.41636e-21)
(-0.00794973 1.83401 4.11388e-20)
(-0.0150718 1.82499 -2.64852e-21)
(-0.0146779 1.82574 1.42994e-20)
(-0.00903084 1.82727 -2.11305e-20)
(-0.00818959 1.82915 -2.4776e-21)
(-0.0221309 1.79474 4.68363e-22)
(-0.020998 1.79592 2.25938e-20)
(0.526955 1.2338 -4.73375e-19)
(0.55177 1.32835 -6.52851e-19)
(0.649249 1.38232 -6.27979e-19)
(0.53738 1.40478 -3.17525e-19)
(0.535739 1.4173 0)
(0.605812 2.41729 1.10414e-19)
(0.702251 2.38268 2.23095e-19)
(0.391688 2.54605 1.10009e-19)
(0.334602 2.6454 -9.36515e-20)
(0.512604 2.61447 1.35187e-19)
(0.526479 2.47544 0)
(0.544196 2.46967 -3.49085e-19)
(0.0544522 2.51152 7.3371e-19)
(0.236662 2.5492 -4.2167e-20)
(0.185158 2.51212 -8.93408e-19)
(0.919261 2.34204 1.435e-19)
(0.825613 2.33856 0)
(1.01066 -0.00027244 8.76103e-21)
(1.01394 -0.00520962 -7.14591e-21)
(1.016 -0.00488336 -1.29296e-19)
(1.01317 -0.00429394 1.28543e-19)
(1.01294 0.000306455 0)
(0.649336 1.26322 0)
(0.64719 1.15981 0)
(0.746816 1.06634 0)
(0.634722 1.10636 0)
(1.16678 2.63863 4.79408e-20)
(1.03715 2.35871 0)
(0.790407 2.27563 -2.05481e-21)
(0.830272 2.47218 0)
(0.896447 2.55991 -9.45941e-21)
(0.912077 2.52564 0)
(0.836464 0.132562 0)
(0.804062 0.150631 7.82874e-20)
(0.910302 0.121871 3.93579e-19)
(0.861489 0.114119 -1.60262e-19)
(0.856601 0.0732276 -4.76423e-19)
(1.02295 0.214073 -2.00281e-19)
(0.957647 0.268604 -1.52054e-20)
(0.88868 0.263844 3.49685e-19)
(0.963762 0.208558 2.59454e-19)
(0.930637 0.161578 -4.885e-19)
(0.899367 0.175535 6.32491e-20)
(0.915518 0.239881 -1.22407e-19)
(0.898226 0.195664 0)
(0.969413 0.16247 -2.3224e-19)
(1.00012 0.162364 0)
(0.997341 0.196362 0)
(1.05431 0.0976661 6.92236e-20)
(1.01815 0.149517 -1.29994e-20)
(1.01457 0.213332 -1.04962e-19)
(1.04692 0.179635 0)
(1.0136 0.0240251 1.95846e-19)
(1.02264 0.0434201 2.28534e-19)
(1.02023 0.0269968 -1.94302e-19)
(1.01436 0.0481226 -1.53991e-19)
(1.00159 0.0484849 -2.58804e-19)
(0.975492 0.126504 0)
(0.985176 0.0785869 0)
(0.967534 0.047035 -1.85471e-19)
(0.931306 0.0556018 7.73544e-20)
(0.997548 0.0790927 2.18321e-19)
(1.01883 0.0979513 -2.13197e-19)
(1.02611 0.121524 1.95073e-19)
(0.993903 0.120455 0)
(1.03038 0.0880226 0)
(1.01719 0.0747765 -9.0625e-20)
(1.0141 0.0774257 -1.74567e-19)
(0.568667 1.06939 -1.24658e-19)
(0.629334 1.49547 2.23991e-19)
(1.15139 2.78519 1.5709e-19)
(1.22513 3.10361 -7.754e-20)
(1.2352 2.74357 6.08768e-19)
(1.27306 2.72341 -3.60557e-19)
(1.19261 2.34867 -3.99757e-21)
(1.20941 3.01153 2.32314e-19)
(1.22188 2.97993 -2.80306e-19)
(1.21637 3.25325 -2.77909e-19)
(1.37584 2.9848 3.84967e-19)
(1.37037 2.89647 0)
(0.506504 0.850748 -9.18496e-21)
(0.156908 1.30192 3.40096e-19)
(0.520315 0.547395 3.32424e-19)
(0.344499 0.318911 3.5913e-19)
(0.560829 0.450924 3.85283e-19)
(0.540793 0.502367 -6.06087e-19)
(0.542965 0.525443 4.96317e-19)
(0.515513 0.484971 -1.99219e-19)
(0.47872 0.431976 4.63939e-19)
(0.773683 0.256271 5.30931e-19)
(0.741966 0.299282 0)
(0.737728 0.251029 1.14316e-20)
(0.690007 0.522454 1.7666e-19)
(0.673773 0.488743 -6.53157e-19)
(0.604566 0.507132 1.96141e-20)
(0.626647 0.482039 0)
(0.627455 0.735371 1.29067e-19)
(0.775453 0.767694 3.15232e-20)
(0.70762 0.851615 -4.58543e-20)
(0.817085 0.794052 -8.58036e-21)
(0.866949 0.833512 1.84991e-20)
(0.873553 0.839533 -1.89417e-20)
(0.780819 0.627358 -1.94028e-19)
(0.867096 0.682184 7.97104e-21)
(0.929714 0.69502 0)
(0.920285 0.671584 -3.34921e-21)
(0.978942 0.303288 5.15129e-20)
(1.07122 0.278534 -1.07341e-20)
(1.00767 0.256861 8.17579e-20)
(0.9565 0.332136 -1.2337e-19)
(0.992048 0.397141 0)
(1.05241 0.389252 0)
(0.88326 0.324839 4.05377e-21)
(0.834152 0.269746 0)
(0.835 0.26061 1.85121e-19)
(0.887328 0.266519 -7.20609e-21)
(0.88682 0.398498 6.72791e-19)
(0.831461 0.4624 1.73202e-19)
(0.842339 0.427195 -2.24077e-19)
(0.787795 0.415324 -2.40593e-19)
(0.771995 0.414482 1.69269e-19)
(0.769046 0.407908 -1.65404e-19)
(1.02506 -0.0123373 2.04979e-19)
(1.02436 -0.00871214 0)
(1.02206 -0.00882484 1.3856e-19)
(1.02393 -0.0130167 -2.32957e-21)
(1.03243 -0.000357196 1.50278e-19)
(1.02662 0.0103893 -3.17998e-19)
(1.02576 0.0144047 0)
(1.02136 0.0140544 -6.64901e-20)
(1.01976 0.00629905 1.65491e-19)
(1.01677 0.0105168 -8.40913e-20)
(1.0211 0.0121695 6.27747e-20)
(-0.0696116 1.67282 0)
(-0.122228 1.71824 0)
(-0.100858 1.59497 0)
(-0.0612126 1.61757 0)
(-0.289733 1.64347 -2.71357e-19)
(-0.277126 1.47804 7.89392e-20)
(-0.343223 1.91699 7.31879e-20)
(-0.416393 1.6778 -1.92255e-19)
(-0.195251 1.75774 -1.69764e-21)
(-0.210992 1.74952 -2.87639e-22)
(-0.250493 1.62224 4.96611e-20)
(-0.228548 1.63062 -1.03226e-19)
(-0.172138 1.65579 6.94831e-21)
(-0.161365 1.69329 -8.07652e-23)
(-0.207287 2.1426 -8.24785e-20)
(-0.22395 2.2283 0)
(-0.320715 2.23318 -4.02284e-20)
(-0.372134 1.99146 -4.09204e-20)
(-0.0386091 2.28205 8.32876e-20)
(-0.0366138 2.56589 0)
(0.0713764 2.54946 -4.7814e-20)
(0.142936 2.57661 3.39874e-20)
(-0.198091 2.2814 2.42141e-19)
(-0.284593 2.26077 -1.43338e-19)
(-0.206583 2.43788 0)
(-0.123059 1.86823 -6.90158e-20)
(-0.0954422 1.86715 -1.26647e-19)
(-0.101325 1.85272 0)
(-0.098315 1.92811 -3.88561e-21)
(-0.137363 1.92721 4.03735e-20)
(-0.0440773 1.78232 5.11866e-21)
(-0.0301471 1.78412 -7.77691e-20)
(-0.0315436 1.79274 2.01144e-20)
(-0.0479899 1.79439 2.87572e-20)
(-0.0674907 1.79416 0)
(-0.0287874 1.79289 0)
(-0.0251906 1.78533 2.34301e-20)
(-0.0268614 1.79318 -7.83479e-21)
(-0.0268788 1.79304 0)
(-0.0234264 1.77807 1.79559e-20)
(-0.0227923 1.7781 -3.53799e-20)
(1.03236 0.0175082 0)
(1.03492 0.0176705 -1.99532e-20)
(1.03578 0.0189009 -1.45783e-19)
(1.03392 0.0197478 0)
(1.03353 0.0214768 0)
(1.03822 0.0107878 -5.34603e-21)
(1.03752 0.0097008 2.44866e-19)
(1.03399 0.00956019 2.97837e-19)
(1.03189 0.00736991 0)
(1.02588 0.00535578 0)
(1.0304 0.0160212 1.48839e-19)
(1.02426 0.0115569 0)
(1.02526 0.00857153 0)
(-0.0191941 1.81462 0)
(-0.0219661 1.79639 2.07526e-21)
(-0.0205166 1.80641 1.19597e-20)
(-0.0266316 1.7946 0)
(-0.0238945 1.79893 1.53893e-20)
(-0.0245565 1.7968 -7.63768e-21)
(-0.0262089 1.79435 0)
(0.565653 1.64013 0)
(0.600761 1.30469 9.93215e-19)
(0.528353 1.45108 0)
(0.59653 1.32018 -5.50611e-19)
(0.543105 1.34363 0)
(0.581858 1.32023 4.89873e-19)
(1.01747 2.69205 -3.26932e-21)
(0.942747 2.36794 -1.91302e-19)
(0.859072 2.09786 2.50018e-19)
(0.837993 2.32778 9.48389e-20)
(0.85764 2.49364 0)
(0.882491 2.50355 0)
(0.889804 2.33896 0)
(0.904867 2.28529 -3.71081e-19)
(0.750331 2.47298 -3.31419e-21)
(0.829836 2.46969 -1.74382e-20)
(0.819482 2.44927 1.38172e-20)
(0.700477 2.36792 0)
(0.79129 2.34051 0)
(0.762046 2.36246 -1.97227e-19)
(0.803918 2.46872 0)
(0.603903 1.07341 0)
(0.485886 0.918315 4.68293e-20)
(0.529196 0.948743 2.10509e-21)
(0.512591 1.03201 0)
(0.517253 0.985394 -6.88177e-20)
(0.724796 0.874681 2.59301e-20)
(0.762688 1.00139 0)
(0.736798 0.974457 -8.52063e-20)
(0.626612 1.00423 0)
(0.608739 0.927397 0)
(1.14547 2.80175 8.24606e-20)
(1.12695 2.86657 1.4859e-19)
(0.91264 2.40623 -3.27021e-19)
(0.883977 2.37827 3.99852e-20)
(1.10485 2.76349 0)
(1.05527 2.73276 -5.45097e-20)
(1.06067 2.48914 -4.28461e-20)
(0.940469 2.20457 -2.57658e-20)
(0.454193 1.42269 0)
(0.457552 1.06501 1.09814e-19)
(0.540389 1.15734 0)
(0.839958 0.220052 0)
(0.810545 0.174099 0)
(0.772233 0.191574 0)
(0.829565 0.225249 -2.91869e-19)
(0.782302 0.227303 1.81014e-19)
(0.932957 0.0533652 -1.53755e-19)
(0.939569 0.101931 0)
(0.925978 0.107077 7.34467e-20)
(0.887616 0.0807011 3.02305e-19)
(0.886762 0.0558111 -1.85863e-19)
(1.16624 3.37519 -1.00211e-18)
(1.21331 3.29576 0)
(1.16661 3.40126 -1.98028e-18)
(0.65256 3.56319 1.69829e-18)
(0.875927 3.12703 4.00759e-19)
(0.482248 0.872447 1.91521e-19)
(0.440563 0.854082 0)
(0.341185 0.565145 -7.56897e-20)
(0.402877 0.690363 -3.37257e-19)
(0.5155 0.543033 -1.0261e-19)
(0.499038 0.566198 1.16093e-19)
(0.620869 0.547896 2.48176e-19)
(0.637301 0.56244 0)
(0.593999 0.629539 0)
(0.559145 0.565082 0)
(0.911379 0.581593 -6.23241e-20)
(0.8363 0.516406 -1.67138e-19)
(0.859691 0.556441 7.02404e-20)
(0.904358 0.489375 -1.18749e-19)
(1.00582 0.461643 0)
(1.01805 0.544195 -1.0148e-22)
(0.830779 0.363596 -3.65277e-19)
(0.836323 0.35182 5.35839e-19)
(0.815399 0.362099 2.86413e-19)
(0.798365 0.33562 -3.30027e-19)
(0.831132 0.296807 -2.45043e-19)
(0.794012 0.302682 3.00305e-19)
(1.03688 0.000355233 -1.56837e-19)
(1.03912 0.00119118 3.19592e-19)
(1.02752 -0.00667912 1.94787e-19)
(1.03282 -0.00380046 -2.33311e-19)
(1.03475 0.0117734 0)
(1.03725 0.010127 -3.85431e-19)
(-0.243033 1.91255 3.09684e-20)
(-0.249442 1.87536 0)
(-0.337641 1.97482 -1.22893e-19)
(-0.338777 1.97283 1.33152e-19)
(-0.342013 1.90415 -1.31494e-19)
(-0.326704 1.90745 0)
(-0.0287573 1.81625 0)
(-0.0276986 1.8019 -8.57937e-21)
(-0.0261657 1.7989 7.7169e-21)
(-0.0253596 1.80099 1.95044e-21)
(-0.0219402 1.81428 -1.52059e-20)
(-0.0221691 1.81645 -2.43031e-20)
(0.502242 1.43043 3.62549e-19)
(0.505573 1.43351 4.19581e-19)
(0.560781 1.3271 4.80518e-19)
(0.600827 1.39681 -2.1954e-20)
(0.631832 1.28741 0)
(0.579663 1.36094 5.72544e-19)
(0.595707 1.3633 -5.7071e-19)
(0.557085 1.30207 -4.70886e-19)
(0.55469 1.28167 0)
(0.547358 1.23561 0)
(0.793889 2.46847 4.92287e-21)
(0.739622 2.49193 4.70517e-19)
(0.799205 2.4776 -3.19504e-19)
(0.70476 2.49316 -1.01321e-19)
(0.661438 2.66297 -2.87242e-21)
(0.536874 2.68138 -8.44899e-20)
(0.951296 2.34066 -1.37282e-19)
(0.985099 2.37985 0)
(0.86998 2.10029 -1.63848e-19)
(1.02825 2.71397 0)
(1.01974 2.69171 0)
(0.618421 2.28418 2.6603e-19)
(1.04596 3.17171 5.05356e-19)
(0.920735 3.0381 -4.53654e-19)
(0.284953 0.981371 0)
(0.337635 0.851766 -1.38045e-19)
(0.483645 0.788328 -4.58885e-19)
(0.410907 2.05926 0)
(0.46716 2.78988 -2.79342e-19)
(0.434138 2.5623 0)
(0.63281 0.689191 -2.66364e-19)
(0.712372 0.670894 3.42302e-19)
(0.732603 0.616389 2.48056e-19)
(0.611682 0.644267 4.11127e-20)
(0.671042 0.599828 -1.70057e-19)
(1.01384 2.77934 -3.84089e-19)
(1.04142 2.84089 3.37927e-19)
(0.661151 2.20336 3.80486e-22)
(0.596739 1.73 -3.28424e-20)
(0.722658 1.92742 1.77339e-19)
(0.997851 2.47368 -4.29012e-20)
(1.00369 2.49897 -2.40253e-19)
(0.688455 1.88231 -9.51624e-21)
(0.469648 1.33069 -1.95558e-19)
)
;

boundaryField
{
    wall-4
    {
        type            noSlip;
    }
    velocity-inlet-5
    {
        type            fixedValue;
        value           uniform (1 0 0);
    }
    velocity-inlet-6
    {
        type            fixedValue;
        value           uniform (0 3 0);
    }
    pressure-outlet-7
    {
        type            zeroGradient;
    }
    wall-8
    {
        type            noSlip;
    }
    frontAndBackPlanes
    {
        type            empty;
    }
}


// ************************************************************************* //
