/*--------------------------------*- C++ -*----------------------------------*\
| =========                 |                                                 |
| \\      /  F ield         | OpenFOAM: The Open Source CFD Toolbox           |
|  \\    /   O peration     | Version:  2412                                  |
|   \\  /    A nd           | Website:  www.openfoam.com                      |
|    \\/     M anipulation  |                                                 |
\*---------------------------------------------------------------------------*/
FoamFile
{
    version     2.0;
    format      ascii;
    arch        "LSB;label=32;scalar=64";
    class       surfaceScalarField;
    location    "6";
    object      phi;
}
// * * * * * * * * * * * * * * * * * * * * * * * * * * * * * * * * * * * * * //

dimensions      [0 3 -1 0 0 0 0];

oriented        oriented;

internalField   nonuniform List<scalar> 
47
(
3.75095
1.88112
1.86983
-0.546661
4.29761
3.20429
3.20429
-1.87898
3.7601
1.87198
-1.86796
6.16558
-1.88299
3.75282
3.13262
0.0716711
3.13262
3.08383
0.0487939
-3.08383
0.0151234
3.75093
-4.22404
4.29571
1.94154
1.82261
1.93048
1.87104
1.88906
3.31102
0.984683
3.35982
-1.89624
3.76728
-1.85659
3.79813
-1.88486
-1.86606
-3.84907
-2.54129
3.83394
-0.474126
-0.0590171
3.73911
4.72379
4.24967
4.36598
)
;

boundaryField
{
    wall-4
    {
        type            calculated;
        value           uniform 0;
    }
    velocity-inlet-5
    {
        type            calculated;
        value           uniform -3.75095;
    }
    velocity-inlet-6
    {
        type            calculated;
        value           nonuniform List<scalar> 0();
    }
    pressure-outlet-7
    {
        type            calculated;
        value           nonuniform List<scalar> 0();
    }
    wall-8
    {
        type            calculated;
        value           nonuniform List<scalar> 0();
    }
    frontAndBackPlanes
    {
        type            empty;
    }
    procBoundary4to1
    {
        type            processor;
        value           nonuniform List<scalar> 2(3.0687 6.39036);
    }
    procBoundary4to3
    {
        type            processor;
        value           nonuniform List<scalar> 3(-2.45342 -3.75309 -1.87895);
    }
    procBoundary4to5
    {
        type            processor;
        value           nonuniform List<scalar> 6(4.27604 3.77392 3.79654 3.82629 -0.116313 1.82469);
    }
}


// ************************************************************************* //
