/*--------------------------------*- C++ -*----------------------------------*\
| =========                 |                                                 |
| \\      /  F ield         | OpenFOAM: The Open Source CFD Toolbox           |
|  \\    /   O peration     | Version:  2412                                  |
|   \\  /    A nd           | Website:  www.openfoam.com                      |
|    \\/     M anipulation  |                                                 |
\*---------------------------------------------------------------------------*/
FoamFile
{
    version     2.0;
    format      ascii;
    arch        "LSB;label=32;scalar=64";
    class       volScalarField;
    location    "30";
    object      p;
}
// * * * * * * * * * * * * * * * * * * * * * * * * * * * * * * * * * * * * * //

dimensions      [0 2 -2 0 0 0 0];

internalField   nonuniform List<scalar> 
918
(
0.390494
1.04317
0.012084
0.389746
-0.035338
1.01024
-0.669587
0.56292
0.370584
-0.251466
-0.209728
0.363646
0.870704
0.637169
-1.29621
-0.116345
0.514673
-0.547952
0.369574
-0.249465
0.597627
0.377218
0.380258
0.370855
0.430656
0.619612
0.751421
-0.0487774
0.00293786
-0.0432871
-0.0918995
-0.176648
-0.209324
0.893883
0.944976
0.967655
0.339247
0.166427
-0.527717
-0.599715
-0.591
-0.717863
0.555062
0.558022
-0.334455
0.56293
0.573562
0.357913
0.369947
0.370858
0.371971
0.370899
0.372309
0.255911
-0.259883
-0.287231
-0.22969
-0.22434
-0.0690625
-0.200722
-0.202474
-0.218155
-0.232316
0.291664
0.360243
0.357534
0.368327
0.37539
0.982724
0.954634
0.980781
0.89444
0.910966
0.848672
0.821284
0.657582
0.679191
0.622738
0.611938
-1.73492
-2.69948
-0.699278
-0.444355
-0.0259658
-0.0724563
-0.0795264
0.504642
0.506111
0.515073
0.527214
0.91172
-0.544989
-0.67732
0.369703
0.368489
0.376899
0.377583
0.37359
0.372683
-0.277221
-0.277142
-0.113444
-0.236627
-0.195718
0.585536
0.584178
0.371405
0.368436
0.383049
0.403217
0.395142
0.127794
0.436498
0.452789
0.439399
0.608602
0.603123
0.611721
0.724834
0.688382
0.788745
0.811871
-0.0265807
-0.0184625
-0.145102
-0.197398
-0.189894
0.33523
0.328052
0.353579
0.342569
0.344963
0.0815129
-0.0546386
0.253074
0.278127
-0.436921
-0.501211
-0.606051
-0.622794
-0.735157
0.426572
0.54401
0.54451
-0.353779
-0.272942
-0.412403
-0.199264
-0.262227
0.348426
0.35523
0.35033
0.365635
0.360158
0.362083
0.374171
0.37127
0.372813
0.31892
0.440641
0.181943
0.149777
-0.406746
-0.308505
-0.40343
-0.215471
-0.210464
-0.0641479
-0.043942
-0.0781319
-0.0808246
-0.204963
-0.204568
-0.205799
-0.250356
-0.258107
0.28444
0.273705
0.303373
0.310433
0.351323
0.352275
0.355123
0.353691
0.772025
0.794308
0.801933
0.775781
-3.70278
-6.51136
-0.114388
0.024965
-0.0630963
-0.0535536
-0.0317484
-0.0591192
-0.0221023
-0.0118252
-0.0622471
-0.0774966
-0.0301176
-0.0669566
0.490173
0.490509
0.827955
0.823196
0.813415
0.763764
0.357702
0.359861
0.365426
0.361276
-0.27862
-0.279568
-0.278593
0.571391
0.578902
0.578866
0.092102
0.00842066
0.174775
0.201913
0.475762
0.458498
0.473284
0.500387
0.537539
0.819342
0.837665
0.835837
0.84437
0.888466
0.904919
0.870214
0.315852
0.325144
0.32038
0.35686
0.354518
0.355479
0.35065
0.352335
0.350022
-0.207527
-0.592808
0.337978
0.353899
0.326857
0.337418
0.502117
0.573012
0.52623
0.534357
0.535726
-0.132904
-0.191532
0.106972
0.0791987
0.227608
0.261968
0.242303
0.743105
0.70377
0.753758
0.727033
0.68855
0.713856
-0.544851
-2.06209
-1.17171
0.381305
0.19144
0.280339
-0.0920533
-0.0869297
-0.0783657
0.813141
0.89284
0.497052
0.658806
0.670859
0.577204
0.607436
0.661552
0.587696
0.621777
0.656591
0.637822
0.384816
0.34944
0.348065
0.641219
0.696719
-0.018862
-0.0721299
-0.117555
-0.0269719
0.0327657
0.00374668
0.860647
0.755097
0.828489
0.368162
0.368844
-0.105337
-0.149887
0.372935
0.372946
-0.114388
-0.233315
0.262701
-1.00562
-0.0309997
0.361352
0.351773
0.368584
-0.242864
0.214014
-0.187627
-0.0728002
-0.114411
0.361364
0.301036
0.263095
-0.15281
-0.159634
-0.290053
-0.367132
0.365831
0.364152
0.368052
0.369083
0.369725
-0.183715
-0.170458
-0.12837
-0.324401
-0.226131
-0.255832
0.333586
0.350186
-0.3223
0.368194
0.370317
0.37014
0.363281
0.368929
0.367181
-0.194057
-0.222522
-0.235609
0.0781804
0.194824
0.510992
0.60768
0.475136
0.248269
0.00920492
0.410155
0.476272
0.377984
0.537505
0.536714
0.553439
0.0309371
-0.116186
0.039787
-0.0158785
0.359246
0.357891
0.350042
0.347195
0.363465
0.361558
0.366131
0.363067
0.366005
0.367444
-0.197155
-0.213006
-0.238841
-0.297279
0.17417
0.43224
0.105378
0.134454
0.0122569
-0.195713
-0.203914
-0.182619
-0.199143
-0.123854
-0.135616
-0.0863723
-0.072717
-0.105174
-0.106895
-0.129169
-0.144199
-0.157524
0.355083
0.354015
0.360194
0.367471
0.310119
0.314205
0.280763
0.300175
0.285998
0.22879
0.262566
0.237493
-0.111114
-0.180649
-0.0969727
-0.171764
-0.109852
-0.304969
-0.276939
-0.36174
-0.253872
-0.250696
-0.306021
-0.296885
-0.327443
-0.441011
0.813842
0.756794
-0.0498525
0.355104
0.361451
0.358299
0.362968
0.366091
0.366999
0.364749
0.361279
0.350833
0.352666
0.348986
0.349386
-0.262853
-0.399807
-0.223643
-0.290846
-0.0257937
0.4682
0.208314
0.149386
0.143558
0.362292
0.757535
0.554815
0.554664
0.578591
-0.509273
-0.112611
-0.442293
0.17609
-0.000994983
0.50838
0.559632
0.58279
0.529254
0.480328
-0.279032
0.380299
-0.210066
-0.166146
0.0250765
-0.0807363
0.554131
0.519312
0.523926
0.54081
0.559571
0.524868
0.502847
0.498476
0.537485
0.543287
0.335929
0.110698
0.0661758
0.028168
0.503001
0.377585
0.435937
0.349798
0.354075
0.35695
0.355508
0.338359
0.345482
0.341315
0.346784
0.349934
0.359199
0.359518
0.354991
0.357219
-0.20017
-0.208547
-0.178414
-0.291372
-0.280812
-0.334167
-0.221824
-0.0874682
-0.120066
0.0678992
0.17449
-0.114001
-0.228163
-0.198105
-0.169505
0.0134386
0.0385853
-0.0670095
0.0270814
0.00508541
-0.00766629
0.0915992
0.100964
-0.184571
-0.167177
-0.180907
-0.18028
-0.101079
-0.0393865
-0.0263055
-0.178983
-0.131326
-0.212629
-0.234335
-0.183053
-0.172123
-0.164971
-0.135758
-0.300891
-0.217764
-0.207073
-0.205321
-0.155337
-0.168534
0.349345
0.350974
0.350925
0.358668
0.373595
0.388267
0.351784
0.331654
0.322984
0.325819
0.300317
0.309924
0.306276
0.318608
0.33826
0.346241
0.344992
0.347455
0.330769
0.332462
0.319963
0.323016
0.300415
0.282641
0.271452
-0.279946
-0.23278
-0.283334
-0.209712
-0.161617
-0.177143
-0.11712
-0.160352
-0.145843
-0.126873
-0.107465
-0.39399
-0.361256
-0.239518
-0.163317
-0.346522
-0.378436
-0.447158
0.721455
0.835227
0.648402
0.428902
0.434262
0.669212
0.759636
0.396945
0.569025
0.598142
0.398788
0.658023
0.359838
0.35945
0.357119
0.35656
0.357812
-0.177469
-0.0781274
-0.0652913
-0.0129335
0.105713
0.220871
0.131383
0.00512585
0.140665
0.147663
0.462672
0.479145
0.424643
0.449311
0.447004
0.274664
0.351732
0.4068
0.360488
0.405142
0.427391
0.38839
0.41872
0.365247
0.323057
0.321824
0.267269
0.288317
0.265915
0.248039
0.349394
0.327628
0.337845
0.328522
0.348004
0.375139
0.369467
0.395995
0.407617
0.333922
0.294391
0.303785
0.331558
0.29291
0.305957
0.321266
0.053377
-0.0476287
0.0396568
-0.25231
-0.170395
-0.18625
-0.232615
-0.187849
0.0986729
-0.600442
-0.573859
-1.20786
0.321038
0.78801
0.50911
0.479916
0.554927
0.532982
0.53567
0.559659
0.566765
0.49261
0.509795
0.514282
0.467547
0.491199
0.514541
0.512654
0.351029
0.227924
0.219084
0.179973
0.0569096
0.089477
0.29308
0.214783
0.142189
0.147322
0.310293
0.200615
0.266227
0.304438
0.236158
0.191973
0.392635
0.460025
0.450941
0.425644
0.341769
0.353812
0.379855
0.415218
0.442151
0.475374
0.346706
0.352414
0.35372
0.351326
0.348409
0.351245
0.35132
0.353837
0.354725
0.35766
0.35662
-0.19635
-0.18425
-0.197115
-0.204592
-0.174322
-0.180974
-0.132313
-0.139692
-0.157752
-0.150989
-0.180956
-0.183672
-0.176438
-0.168924
-0.054444
-0.0390015
-0.0486288
-0.0936861
0.081449
0.215858
0.278616
0.161551
0.0539218
0.0815272
0.108995
-0.168275
-0.111784
-0.131319
-0.0956357
-0.112738
-0.212043
-0.235137
-0.237405
-0.157425
-0.188955
-0.277988
-0.305175
-0.293662
-0.28336
-0.247473
-0.280618
0.333974
0.327651
0.328494
0.322845
0.321793
0.335043
0.339184
0.340915
0.346061
0.347755
0.338669
0.343901
0.347228
-0.289508
-0.370362
-0.336442
-0.280442
-0.338098
-0.400663
-0.34122
-0.0547397
-0.127976
-0.122177
-0.163962
-0.285549
-0.231079
0.308172
0.307291
0.318407
0.533031
0.386113
0.305568
0.401199
0.504609
0.0912036
0.291599
0.122631
0.704654
0.594422
0.738323
0.36216
0.0675389
0.222084
0.271805
0.0807351
0.152849
0.159713
0.0486928
0.0811781
0.111629
0.210761
0.091183
0.0652462
-0.179603
0.00578685
0.128313
0.108084
0.240999
0.305918
0.0785218
0.00277176
-0.0422315
0.454296
0.474406
0.49306
0.462773
0.487703
0.409829
0.401442
0.419743
0.428052
0.421905
-0.935591
-0.642831
-1.58812
-0.902047
-0.451102
0.353295
0.316111
0.588301
0.479514
0.545564
0.53101
0.491517
0.456954
0.468621
0.501299
0.203194
0.313145
0.287038
0.294056
0.196854
0.130485
0.428772
0.422003
0.460068
0.483777
0.449431
0.483384
0.344522
0.344136
0.343653
0.340405
0.338875
0.340863
-0.0842115
-0.117733
-0.0878683
-0.107198
-0.131263
-0.139558
-0.237984
-0.25633
-0.256658
-0.275489
-0.275507
-0.22896
-0.016614
-0.0726508
-0.146646
-0.117938
-0.175131
-0.237279
-0.256887
-0.158963
-0.0709532
-0.0783143
0.224079
0.475083
0.298933
0.46784
0.30566
0.361736
0.310317
0.30193
0.332745
0.206871
0.283057
0.0531423
-0.452431
-0.360467
0.605361
0.624519
0.411425
0.224732
-0.00563506
0.18227
0.37884
0.317111
0.356481
0.424797
0.417739
-0.162769
-0.0960942
0.166419
0.394395
0.0599231
0.0516303
0.0468697
0.221494
0.145203
)
;

boundaryField
{
    wall-4
    {
        type            zeroGradient;
    }
    velocity-inlet-5
    {
        type            zeroGradient;
    }
    velocity-inlet-6
    {
        type            zeroGradient;
    }
    pressure-outlet-7
    {
        type            fixedValue;
        value           uniform 0;
    }
    wall-8
    {
        type            zeroGradient;
    }
    frontAndBackPlanes
    {
        type            empty;
    }
}


// ************************************************************************* //
