/*--------------------------------*- C++ -*----------------------------------*\
| =========                 |                                                 |
| \\      /  F ield         | OpenFOAM: The Open Source CFD Toolbox           |
|  \\    /   O peration     | Version:  2412                                  |
|   \\  /    A nd           | Website:  www.openfoam.com                      |
|    \\/     M anipulation  |                                                 |
\*---------------------------------------------------------------------------*/
FoamFile
{
    version     2.0;
    format      ascii;
    arch        "LSB;label=32;scalar=64";
    class       surfaceScalarField;
    location    "30";
    object      phi;
}
// * * * * * * * * * * * * * * * * * * * * * * * * * * * * * * * * * * * * * //

dimensions      [0 3 -1 0 0 0 0];

oriented        oriented;

internalField   nonuniform List<scalar> 
1300
(
3.75095
5.62643
-4.67846
3.75095
-5.01553
5.62643
-4.45641
4.45641
-1.06896
1.06896
1.87646
1.8745
-2.98593
2.98593
-2.41369
2.41369
-2.56338
2.56338
-5.2465
5.2465
-5.06893
5.06893
4.66917
-4.66917
-4.59949
4.59949
-1.44914
1.44914
-3.87706
3.87706
3.16977
-3.16977
-2.47495
2.47495
-0.285068
0.285068
-0.553552
4.30451
3.1974
3.1974
-2.10495
2.10495
-4.86269
4.86269
6.21823
-6.21823
6.56649
-6.56649
-1.88803
-3.33456
1.53942
-10.0493
-3.47611
-3.47611
-8.44039
8.44039
-2.81396
2.81247
2.94285
-2.94285
-1.78602
1.78602
-4.39803
-0.058385
-4.39803
4.44954
0.00687354
4.44954
-1.18528
0.116321
-1.18528
3.959
-3.959
0.907461
0.161494
0.907461
3.06459
-3.06459
-1.87709
3.75355
1.87386
-1.87185
6.17635
-1.87911
3.7536
-5.91194
5.91194
-3.20968
0.223748
-3.20968
2.77804
0.207896
2.77804
-6.69945
6.69945
-2.46679
0.0530983
-2.46679
2.31382
0.0998735
2.31382
2.86332
-2.86332
-2.66119
0.0978058
-2.66119
2.45405
0.109333
2.45405
0.353534
5.2729
-5.97996
8.79244
-5.2729
0.0263991
5.20844
0.0380515
5.20844
-5.1061
0.0371712
-5.1061
5.01089
0.0580436
5.01089
4.76054
-0.0913708
4.76054
-4.78407
0.114905
-4.78407
-2.87492
-5.08843
-5.37406
0.774566
-5.37406
-1.45138
0.00224826
-1.45138
1.40615
0.0429833
1.40615
-3.55952
3.55952
-4.2437
0.366642
-4.2437
3.12429
0.0454816
3.12429
1.86854
1.88242
5.61949
-5.61949
2.44972
-2.28583
-0.189115
-2.28583
-2.72928
-3.83721
2.72928
-0.254336
-0.555009
0.269941
-0.555009
3.15919
0.0382123
3.15919
2.31294
0.141109
-2.31294
0.207995
3.20661
-3.20661
1.48679
0.61816
1.48679
-5.56629
5.56629
4.95346
0.0574298
-4.95346
0.0907689
6.15713
0.0611
6.15713
-6.19959
-0.0186365
-6.19959
1.82288
-5.15744
-4.03579
3.87696
0.722531
-3.87696
0.400859
2.91277
0.0300858
2.91277
-2.92158
2.92158
-2.98283
0.0399773
-2.98283
-2.18767
0.401649
-2.18767
1.48406
0.301959
1.48406
-4.2725
-0.125527
-4.2725
-4.37629
0.13259
4.37629
0.0732521
1.06083
-1.06083
-1.29029
0.105013
-1.29029
-4.10879
-0.16371
4.10879
-0.149794
-3.8351
-0.123895
-3.8351
-3.02333
0.0404963
3.02333
0.0412633
3.11242
0.0467712
-3.11242
0.0478268
-1.87084
3.75326
-1.88011
3.75398
-5.53224
-0.379707
-5.53224
6.22323
-0.311283
6.22323
3.54508
0.331976
-3.54508
0.335397
2.59571
0.182331
2.59571
-6.68578
-0.0136763
-6.68578
6.6513
0.0481536
6.6513
2.50027
0.0954386
-2.50027
0.033479
2.25088
0.0629397
2.25088
2.87348
-0.0101611
2.87348
-2.86276
-0.000556424
-2.86276
2.80345
-2.80345
2.73645
0.0669951
-2.73645
0.0752607
-11.1329
11.1143
-0.0352342
-11.0977
5.17321
5.17321
4.19115
0.569389
4.19115
-4.99851
0.21444
-4.99851
2.09804
-6.13383
4.81651
-7.69143
4.88191
-14.9312
3.46837
-8.55681
6.35445
-6.35445
5.98162
0.372829
-5.98162
0.607562
-1.47518
0.0238015
-1.47518
-2.95031
-0.609207
-2.95031
4.21618
-0.656669
4.21618
-3.02935
3.02935
-3.07823
0.048878
3.07823
0.0460631
2.21383
0.0370443
-2.21383
-0.0719997
0.734475
0.172987
-0.734475
0.179465
3.42309
-0.216482
3.42309
-3.01548
-0.191121
-3.01548
-1.4847
0.00951941
1.4847
0.0020833
-5.81569
0.249402
-5.81569
-11.1907
0.0929775
-11.1526
-6.10662
-6.10662
2.33377
11.1262
-2.88546
0.0226997
2.88546
0.0273056
2.97641
0.0529362
-2.97641
0.0548331
-2.86434
0.0608953
2.86434
0.0572397
-2.56493
0.377257
-2.56493
-1.07122
1.07122
-1.24871
0.177496
1.24871
0.235348
1.30055
-0.239717
1.30055
1.354
0.0521553
-1.354
0.0637071
-3.72518
-0.10992
-3.72518
6.46089
-0.237668
6.46089
-2.91704
-0.0984456
2.91704
-0.043559
-0.0332904
11.1476
-5.13992
0.0338154
5.13992
-11.2087
11.2425
-3.23843
0.673503
3.23843
0.952718
5.2887
0.277592
-5.2887
0.290187
6.54892
0.102378
-6.54892
0.194469
-2.45848
-0.491829
-2.45848
-4.94728
-0.584952
4.94728
-0.731101
-11.4754
-0.203737
11.6791
-11.4174
6.01943
0.137703
-6.01943
11.3802
-0.992378
-0.068453
0.992378
0.0788383
1.61164
-0.31109
1.61164
3.61811
-0.195024
-3.61811
-0.107071
-6.60778
-0.0779954
6.60778
-0.146886
-2.01971
-0.438765
2.01971
-0.408076
-4.26696
4.30517
1.9094
-1.27148
-3.88596
-5.10868
1.852
1.90126
4.30171
-9.68573
-5.24551
-9.28488
7.26677
-6.97659
-9.2729
9.18153
7.59949
-7.72338
-5.78537
5.83144
6.48163
-6.44037
1.87885
1.8747
7.90281
-7.67906
-15.6713
15.2916
7.32292
-7.26982
15.7824
-15.7961
-17.8227
17.9251
-5.72887
5.82667
-6.72083
6.72027
-6.91022
6.86666
-1.74268
-5.94875
13.3221
-12.5476
6.73694
-6.92606
-8.49621
8.86285
3.38237
0.9228
3.42914
-1.88233
3.76117
-1.87128
3.78067
4.4328
-6.17548
1.70103
-5.587
3.45305
3.28389
-3.19872
-1.90997
-5.91817
5.94826
-5.82239
5.87963
8.92814
-8.98653
-1.88504
3.75974
-1.86893
3.7702
-3.42525
-2.36013
3.37976
0.921948
7.52208
5.80005
-8.24461
-1.04027
-7.83108
7.63605
-8.10221
7.91109
-0.442932
5.82068
-5.37775
4.41976
-1.55779
7.37847
5.70898
5.92342
5.86645
-5.58886
1.11013
-6.48788
-6.39711
-2.54838
2.6534
2.50198
-2.34049
5.97106
1.62843
5.82126
-5.55943
-2.16395
-5.66935
3.82124
2.01019
3.87012
4.07635
2.40528
4.11685
3.0308
-3.03554
0.0047403
-3.05622
6.08702
0.724201
-5.41634
-4.4944
4.91975
2.98306
5.12765
-5.48507
-2.19399
-5.14968
-9.54945
-6.12186
-10.1344
10.1136
5.17804
9.80228
-11.9608
11.8139
4.35461
2.96831
4.45448
-4.85384
-2.41598
-4.82036
11.601
-2.53364
-9.06737
-10.3058
-7.51688
10.2577
5.52473
10.8884
7.0367
11.0828
4.41709
7.18391
-9.94182
2.42494
-3.87148
-1.85739
-3.79622
3.70025
2.12642
3.80959
-4.21246
-2.50837
-4.18976
-4.28046
-2.62976
4.29062
2.42965
-4.37102
-3.73119
4.46946
2.3972
5.0102
-10.2557
3.54661
-9.49536
-9.37173
-3.17583
-8.76417
5.4696
1.7555
-7.2251
-0.705878
8.20284
-4.91895
6.29287
-4.01743
-2.90863
-4.08943
-6.7866
-1.7096
-6.65401
-8.88925
8.39742
-9.19955
8.54288
12.7048
-5.71339
-6.99143
-3.96794
-2.47243
3.92011
-0.490975
-3.71158
3.71632
0.0495959
3.83027
4.75307
4.26209
-3.88739
-1.935
-3.83255
3.83336
2.04626
3.89426
6.72796
2.20018
6.73484
-6.44307
-2.54346
-6.5686
9.08394
-8.68229
2.92331
-2.91379
5.27744
2.63365
-5.06096
-2.77012
6.18406
-3.11432
-3.06973
-12.2116
10.5605
1.65116
-4.83316
-0.413405
-0.128337
-5.49993
-3.77298
5.38502
0.538396
11.0989
7.3259
-5.51219
5.7616
6.16694
6.22437
-0.172735
5.83892
-5.16541
5.34313
-2.44043
-2.9027
5.31061
-5.47432
-1.25799
-5.32231
4.06432
0.346949
1.73366
-1.46372
-2.01411
-0.534275
-1.9504
1.48331
1.01867
1.6563
0.965414
1.68798
-2.94152
0.536186
2.40534
-1.97611
-1.8043
-3.69248
-1.01398
4.70646
5.56828
2.06777
-5.46121
-0.208138
2.7205
-2.67751
-0.803763
-2.88872
2.09613
-2.89989
-3.5873
-1.894
5.4813
-3.37086
-0.461696
3.31792
0.552201
-3.82505
-2.09312
3.78507
0.331778
-3.12433
6.19004
-3.06571
-5.05933
2.52902
3.55799
4.53922
-4.7903
2.44625
2.34406
-1.23231
4.21423
0.913413
4.39657
-6.71938
4.52539
5.72585
3.137
-6.05782
0.908145
-5.81123
8.46978
-7.26735
-1.20243
4.10908
4.3607
7.18483
5.51999
-5.75037
12.9352
-1.13219
-6.13515
6.94342
-3.80642
4.75276
-8.55918
-10.2728
4.1376
-9.237
10.9698
-1.7328
-3.61281
-8.34799
12.8498
-1.21663
-11.6332
8.58566
-4.24269
-4.4512
8.69389
-6.77634
6.86718
-1.98856
-4.87862
-10.1033
-5.69275
10.1813
1.63261
-10.3114
12.7364
-3.12751
3.41667
1.03781
3.47961
3.26023
-5.41794
2.15771
3.5161
-5.50467
2.11509
-7.53303
-7.65453
13.2358
-5.58126
-10.8304
-10.081
-0.749354
2.55264
10.1837
-9.58933
7.38951
2.19983
3.3104
0.583859
-3.3774
-0.418825
0.269052
4.55648
-4.82554
4.07864
4.21975
3.39789
1.1586
3.83942
2.10884
-3.86672
-0.323037
-4.14701
1.51725
-1.71736
-3.64516
5.16242
-4.07171
0.426544
-2.7284
-3.5165
6.24491
-4.58579
3.04035
3.14969
5.08661
-4.90793
1.39143
-2.40144
-2.50649
2.68028
-4.39764
1.93689
3.22552
4.33409
0.6029
7.33746
5.89833
-9.09295
-0.402406
11.6984
-10.6581
2.68065
8.40219
-10.0702
-0.0108459
-8.77502
0.619313
-5.53827
-6.60578
5.07062
-6.78022
-3.48856
6.13389
0.600944
-6.20714
-0.446871
-6.03637
-2.85287
-6.47514
-3.06401
-6.13554
-8.81438
-1.65267
-7.16171
6.74475
-6.6813
-3.4531
7.4124
1.13048
-7.41003
7.34157
-7.49308
7.18199
0.0945423
3.62177
4.35664
1.88421
-2.38947
4.27368
-5.06293
7.26311
-8.54056
3.47763
4.03969
-6.58315
-4.50087
5.04429
4.03965
5.34625
8.96209
-10.4713
1.50919
-10.8036
12.1289
-1.32527
-16.5915
5.78788
-7.6294
2.66292
0.260381
2.68673
0.666404
2.41776
-3.08417
-2.24738
-2.2453
-2.33757
-3.40686
5.74442
1.15245
-3.40828
2.25583
-3.47947
4.63191
-0.0730422
-3.33523
5.27531
-2.85755
5.53569
-3.55251
1.98319
3.32651
5.6728
-2.34629
4.33729
-1.70364
1.83969
-4.18598
-1.56717
-2.97817
5.10459
-3.26674
3.69328
-0.279055
3.97234
-4.08531
0.970983
-0.68742
3.53233
3.74032
4.28771
-3.12911
2.96801
-4.67165
-1.21797
-4.06875
-0.843227
-0.287374
-3.79777
4.08514
6.05948
-6.34686
-5.25874
9.57364
-4.31491
7.72485
-5.40364
-2.32121
-4.27698
-4.40531
3.89973
1.93919
9.66404
0.212088
-5.61573
-4.95333
-4.00061
3.21786
2.12527
-1.93379
3.58494
2.06212
-0.328465
0.580758
1.07554
1.8549
-1.27414
0.208713
1.64618
-1.255
1.99479
0.725709
-2.04694
0.0965431
-1.38682
3.48294
1.01852
-2.03719
0.763056
1.05826
-3.49869
4.83451
-2.48484
-2.34967
5.89277
1.15636
-3.6412
4.16595
-3.81901
2.32864
-3.34263
-1.31255
-5.13156
-3.50313
-2.51848
4.77431
-3.22594
5.29372
1.18701
-5.08558
6.27259
-3.56543
1.67143
-3.06113
3.78684
-1.06649
-1.99465
2.78219
2.69911
-2.92673
0.0380141
-0.144538
2.32184
-2.46638
-0.578048
-2.55416
-4.57092
4.9027
-2.10803
4.55428
2.16565
-1.91444
6.46872
1.81158
-3.72602
-3.24776
-3.70945
-1.38196
3.15725
-0.558795
-4.26157
-5.43742
4.16613
0.230438
-6.8848
7.68314
-0.798338
-3.90174
-0.623646
4.73273
-6.0099
0.505229
-3.89481
3.78833
4.70175
4.93219
-11.4381
-0.195054
-6.26009
1.1658
-7.42589
5.52649
-3.6285
7.7661
-10.4372
6.98408
-9.3067
6.56367
-0.862222
6.23757
-4.07986
2.8298
-8.52255
-6.88994
5.54644
-2.57812
6.58424
-2.98826
9.57251
-6.11577
4.87519
4.69732
-0.839718
-3.24971
-5.14214
4.30242
-0.26695
3.21266
4.97397
-2.86512
4.65093
2.25508
-4.65652
-2.14256
-6.49716
1.84064
-3.34747
-1.91447
3.7551
3.17214
3.756
1.24861
-3.33718
8.372
-9.12135
-2.79074
-3.81504
4.89421
-0.591784
3.55269
-7.36773
-1.98558
4.88352
-0.818287
-4.06523
0.82987
-4.31843
1.65398
-5.97242
5.12624
-5.57311
2.20171
-9.8311
-5.20832
-5.12948
-2.24257
-5.25051
-7.63923
5.39666
-1.85135
5.49023
-8.63205
7.81377
-3.49681
8.89348
-5.4361
-1.03904
5.84418
1.33781
10.2313
0.184658
-4.68553
-1.90627
3.98074
-2.07447
1.31159
-3.61311
0.367629
2.46341
3.42936
-6.52773
-0.055422
-4.74095
-3.92865
7.96829
5.645
11.7045
1.23319
9.164
-1.19571
10.3972
4.15055
4.38589
-3.0672
4.57639
1.01794
4.49557
-0.843403
2.82659
1.84332
1.84557
0.831942
2.29916
1.44117
3.27014
0.185971
-2.05933
4.63738
-8.63799
-0.978348
-8.0686
1.11293
5.72727
-4.61434
3.12362
-0.998348
1.04915
0.106678
-1.62579
1.51911
-2.79602
-1.95426
-0.308072
-1.59985
2.36291
1.88309
-2.05484
-0.741185
0.31188
-3.81501
3.03075
-2.99273
-0.293624
5.97896
-2.74311
0.276733
-1.07168
-2.27742
-2.8117
2.71516
6.17627
0.292445
3.11057
5.19515
3.10202
0.236897
3.94096
-5.67376
-3.59207
-5.86881
-0.342319
4.39041
1.46987
8.71386
6.16718
5.5754
-1.79233
-10.9137
6.58473
-2.00834
5.25947
-1.19424
-4.77818
4.96652
2.29659
-5.56746
-0.00564538
-4.78383
-6.79217
-0.536773
8.35054
-9.69452
8.65548
5.80261
1.35911
-4.4122
-0.717283
4.2347
0.151193
10.5484
-1.12623
-6.81727
7.9435
-4.60104
3.62269
0.84007
2.74487
2.35918
1.36083
-5.45643
-10.0708
-1.90871
-1.58998
-4.25838
0.448078
-2.33117
6.25473
-2.63204
3.93352
5.31146
6.36062
-2.15479
-4.19206
6.4697
-2.53618
3.82443
)
;

boundaryField
{
    wall-4
    {
        type            calculated;
        value           uniform 0;
    }
    velocity-inlet-5
    {
        type            calculated;
        value           uniform -3.75095;
    }
    velocity-inlet-6
    {
        type            calculated;
        value           uniform -5.62643;
    }
    pressure-outlet-7
    {
        type            calculated;
        value           nonuniform List<scalar> 8(4.67846 5.01553 5.22259 8.50991 7.96335 5.85867 6.91455 8.35028);
    }
    wall-8
    {
        type            calculated;
        value           uniform 0;
    }
    frontAndBackPlanes
    {
        type            empty;
    }
}


// ************************************************************************* //
