/*--------------------------------*- C++ -*----------------------------------*\
| =========                 |                                                 |
| \\      /  F ield         | OpenFOAM: The Open Source CFD Toolbox           |
|  \\    /   O peration     | Version:  2412                                  |
|   \\  /    A nd           | Website:  www.openfoam.com                      |
|    \\/     M anipulation  |                                                 |
\*---------------------------------------------------------------------------*/
FoamFile
{
    version     2.0;
    format      ascii;
    arch        "LSB;label=32;scalar=64";
    class       volVectorField;
    location    "30";
    object      U;
}
// * * * * * * * * * * * * * * * * * * * * * * * * * * * * * * * * * * * * * //

dimensions      [0 1 -1 0 0 0 0];

internalField   nonuniform List<vector> 
918
(
(0.985168 -0.000494673 0)
(0.00501161 2.96625 0)
(-0.0590195 1.22881 0)
(0.979698 0.00215207 0)
(0.00353325 1.29971 1.54209e-19)
(-0.0070424 2.94879 -2.15462e-18)
(0.834866 1.1791 5.89059e-19)
(0.355675 0.163296 -1.24658e-20)
(0.999905 -0.000293998 0)
(0.0634896 0.857486 0)
(0.0149026 0.681357 0)
(0.734003 -0.00964129 0)
(0.0111033 2.9304 0)
(0.00211037 2.79498 0)
(-0.0176964 3.15804 9.36313e-19)
(-0.12538 1.43169 8.88367e-20)
(0.43994 0.0576742 8.01908e-19)
(0.189004 1.20424 4.7859e-19)
(0.962771 0.0050196 0)
(-0.0370066 0.705438 0)
(0.086788 0.200458 -5.9585e-19)
(1.00198 -0.00498574 0)
(1.00021 -0.0098042 0)
(0.975708 -0.0064389 0)
(0.598806 -0.0441695 0)
(0.0164421 2.63783 0)
(-0.0150035 2.91011 7.70705e-19)
(-0.122272 1.09353 0)
(-0.192804 1.37753 0)
(-0.0840457 1.16794 0)
(-0.0587264 2.30973 0)
(0.0771202 1.4137 -1.21557e-19)
(0.0168169 1.01341 0)
(-0.0206175 2.9876 -7.64958e-23)
(-0.0166925 3.00529 1.6746e-18)
(0.00210012 3.00019 0)
(0.870256 -0.00935726 0)
(0.404913 0.940416 7.13101e-20)
(0.815964 1.19528 -7.64962e-19)
(0.965948 1.03375 7.53674e-19)
(0.685071 1.28892 -1.36714e-19)
(0.682824 1.27604 7.72918e-19)
(0.396669 0.253509 1.21619e-20)
(0.381156 0.138072 0)
(1.14969 0.558036 0)
(0.357687 0.253966 5.58275e-20)
(0.312558 0.167634 -5.79372e-20)
(0.919639 -0.00749064 0)
(1.00028 0.000134522 0)
(0.999912 0.000330095 0)
(1.00364 -0.00778459 0)
(1.00096 -0.000933606 0)
(1.00017 2.36796e-05 0)
(0.0795864 1.78258 -4.88194e-19)
(0.0329516 1.01168 0)
(0.0802664 0.922688 0)
(0.0269637 0.94684 0)
(0.0254239 0.78656 0)
(0.0271414 1.9998 0)
(-0.00815706 0.819063 0)
(0.000492508 0.69178 0)
(-0.00731547 0.785122 0)
(-0.0096777 0.64747 0)
(0.835323 -0.0143258 0)
(0.85261 0.0263621 0)
(0.768081 -0.000418549 0)
(0.827048 0.0348396 0)
(0.7014 -0.0148459 0)
(0.0146891 3.0004 7.94154e-19)
(0.0114985 3.00798 0)
(0.00611801 3.00279 0)
(0.0135286 2.99734 8.93825e-24)
(0.00798278 2.95848 -1.18031e-18)
(0.014487 2.98208 0)
(0.010837 2.9036 0)
(0.0245454 2.9308 1.70698e-24)
(0.00449788 2.82506 0)
(0.0306392 2.91615 0)
(-0.00534267 2.74457 0)
(0.308936 3.55556 0)
(-0.132034 3.63713 0)
(0.139854 3.2487 8.71351e-19)
(-0.0125056 2.98371 0)
(-0.293805 2.12806 0)
(-0.141601 1.65174 -8.37525e-20)
(-0.123379 1.66687 4.80636e-20)
(0.51863 0.15117 -2.76869e-19)
(0.438183 0.0335903 -2.67513e-19)
(0.502304 0.176778 -8.35196e-19)
(0.423208 0.0808401 -5.54618e-19)
(0.215782 0.92105 0)
(0.269849 1.3424 -5.23713e-19)
(0.380554 1.28841 8.66319e-19)
(0.987482 0.00850506 0)
(0.941989 0.00583862 0)
(1.0003 0.000570708 0)
(1.00287 0.00929772 0)
(1.00304 0.00844479 -1.89672e-18)
(0.991921 0.00970956 1.43228e-18)
(-0.0298363 0.793238 0)
(-0.0113053 0.636028 0)
(-0.118427 1.06907 0)
(-0.0374555 0.85329 0)
(-0.0199298 0.786209 0)
(0.13466 0.208524 1.84293e-19)
(0.189287 0.187091 0)
(0.993522 -0.00840828 0)
(0.954372 -0.00652137 0)
(0.782026 0.0392891 0)
(0.72983 0.0480008 0)
(0.661443 -0.0327727 0)
(0.950409 -0.00547286 0)
(0.658114 0.0616291 0)
(0.492694 -0.0208814 1.1241e-18)
(-0.0367913 2.86314 4.93374e-19)
(0.0420154 2.90892 0)
(0.0547075 2.88498 0)
(-0.00491235 2.69894 0)
(-0.0130675 2.98535 7.19896e-19)
(-0.0179781 2.8953 0)
(-0.0153217 2.98812 -2.25263e-18)
(-0.0133488 2.92524 7.74208e-19)
(-0.284918 1.3779 0)
(-0.291155 1.55754 0)
(-0.0801837 1.44581 5.67327e-21)
(-0.00127637 1.32528 0)
(-0.066323 1.17053 0)
(0.937549 -0.00771757 0)
(0.855583 -0.00964892 0)
(0.863815 0.00682628 0)
(0.948875 -0.00808655 0)
(0.883423 -0.0081289 0)
(0.517396 1.13433 -9.59736e-20)
(0.567113 1.18571 0)
(0.368213 0.884602 1.87365e-20)
(0.310304 0.74466 0)
(0.925497 1.07169 -2.13715e-19)
(1.03922 0.874348 4.33515e-19)
(0.37479 1.38366 0)
(0.537426 1.35283 0)
(0.544243 1.31109 0)
(0.106762 0.178951 -2.15293e-19)
(0.434613 0.233345 0)
(0.405351 0.122577 1.57345e-19)
(1.00962 0.92862 0)
(1.07617 0.776475 0)
(1.10189 0.718909 -3.62079e-19)
(1.12923 0.617781 0)
(1.175 0.401975 5.61147e-20)
(0.95734 -0.0088313 0)
(0.962269 -0.0100865 0)
(0.901349 -0.00807315 0)
(0.984129 -0.00920528 0)
(0.974565 -0.00935497 0)
(0.936982 -0.00640533 0)
(1.00019 0.00232244 0)
(1.00091 0.00142177 0)
(0.999906 0.00084422 0)
(0.034505 2.04737 2.83126e-19)
(0.12273 1.72577 0)
(0.0191351 2.1655 1.63257e-19)
(0.0482888 1.84128 -2.76285e-19)
(0.122874 1.19994 -3.94985e-19)
(0.0434792 1.08159 0)
(0.127414 1.06995 0)
(0.0268195 0.900965 0)
(0.0204627 0.720983 0)
(-0.0117368 2.18515 9.20362e-22)
(0.0319939 1.99031 0)
(-0.0145956 2.15038 6.9223e-20)
(0.0333828 2.00474 -6.05305e-21)
(0.01564 0.861827 0)
(-0.00132393 0.834945 0)
(0.00384879 0.691927 0)
(-0.0108059 0.764621 0)
(-0.0240208 0.628293 0)
(0.932741 0.00773779 0)
(0.841421 -0.0155238 0)
(0.924001 -0.000468056 0)
(0.838266 -0.0112161 0)
(0.813568 0.00364423 0)
(0.903504 0.0187179 0)
(0.881623 0.0221908 0)
(0.79033 0.00243568 0)
(0.00571618 3.06484 -7.21063e-21)
(0.0166621 3.05789 0)
(0.0147063 2.96908 0)
(0.00858393 2.87624 0)
(0.926698 3.9729 0)
(1.24175 3.3052 9.7369e-19)
(0.0703472 3.07581 0)
(-0.0278492 2.90654 0)
(-0.36543 1.62142 0)
(-0.364269 2.05627 0)
(-0.34195 1.84386 0)
(-0.16281 2.35066 -7.75628e-20)
(-0.274497 2.27278 0)
(-0.203363 2.22583 0)
(-0.0388947 1.94079 -4.0976e-21)
(-0.0924124 1.99898 -6.07211e-20)
(-0.126457 1.84228 -4.91781e-20)
(-0.106784 1.84406 0)
(0.54658 0.123627 4.11742e-19)
(0.454585 0.00932138 -4.03714e-19)
(0.261189 1.55519 0)
(0.263311 0.696593 -2.57629e-19)
(0.177199 1.64164 -8.66446e-19)
(0.225191 1.16902 8.68659e-19)
(0.902484 0.00668182 0)
(0.967619 0.0109624 0)
(0.974692 0.010722 0)
(0.923609 0.00655077 0)
(0.00601804 0.747172 0)
(-0.0157258 0.757035 0)
(-0.0227786 0.623273 0)
(0.30285 0.246827 5.1156e-19)
(0.246497 0.224053 -6.07273e-19)
(0.260514 0.179528 0)
(1.0786 0.0862875 1.17264e-20)
(1.06103 0.0403391 0)
(0.993002 0.0398855 0)
(0.888708 -0.00400328 0)
(0.570043 0.0953962 0)
(0.599476 0.0721148 -1.80347e-18)
(0.470286 -0.002198 6.81705e-19)
(0.00920017 2.98139 5.62659e-19)
(-0.0325207 2.86647 4.76337e-20)
(0.00367142 3.05019 -1.54036e-20)
(0.0201498 3.04344 5.50895e-19)
(-0.0150154 2.99658 2.55662e-20)
(-0.0129629 2.94948 -1.03176e-22)
(-0.0172507 3.01196 -4.785e-19)
(0.0148209 3.02393 3.45927e-19)
(0.00733009 3.03673 -5.4443e-19)
(0.931715 -0.00225894 0)
(0.937882 -0.00372768 0)
(0.843261 -0.00880527 0)
(0.956902 0.0115606 0)
(0.943349 0.0126999 0)
(0.882036 0.00638564 0)
(0.91917 0.0154066 0)
(0.927131 0.0141228 0)
(0.839641 0.00506438 0)
(0.721321 1.41318 1.90031e-19)
(0.754967 1.52237 0)
(0.197679 0.347281 4.88153e-20)
(0.207987 0.645575 3.93146e-19)
(0.25504 0.717403 -2.27538e-19)
(0.272058 0.55166 4.44742e-19)
(0.317975 0.755683 1.15757e-18)
(0.123671 0.20931 2.88233e-19)
(0.477745 0.199993 -5.78785e-19)
(0.455742 0.214968 1.51304e-19)
(0.413827 0.105223 2.95127e-19)
(1.16409 0.459416 1.68338e-19)
(1.17561 0.253758 1.71324e-19)
(0.00952421 2.20789 1.19418e-19)
(0.0473839 1.90862 0)
(0.955353 0.0281572 0)
(0.932943 0.0119088 0)
(0.853972 -0.0166764 0)
(0.0111185 3.07434 0)
(0.0197089 2.94407 9.79735e-19)
(0.0164679 2.95633 0)
(0.00629617 2.85071 -9.71779e-19)
(0.00626868 3.09116 2.35238e-19)
(0.00730046 3.08277 0)
(0.788168 1.82531 -2.01593e-19)
(1.24957 2.50383 5.39712e-19)
(0.770352 1.96512 -1.37042e-18)
(0.0203153 2.9818 -4.56852e-19)
(0.0362526 3.00276 0)
(-0.0332757 2.87921 0)
(-0.0267103 2.12029 7.40455e-22)
(-0.044374 2.07172 7.74576e-21)
(0.000348154 1.98721 2.22e-21)
(0.275116 1.36235 8.40717e-19)
(0.2167 0.478007 -5.77926e-19)
(0.0633954 1.97038 6.06632e-19)
(0.138398 1.86123 -7.36294e-19)
(0.1767 1.46286 8.73291e-20)
(0.00265965 3.1183 -1.43378e-18)
(0.0171629 3.11783 1.53469e-18)
(-0.00896481 2.98107 6.45399e-19)
(-0.00310386 2.9775 -5.9394e-19)
(-0.0213 2.88171 -6.5732e-19)
(0.00868395 3.09928 -1.73768e-18)
(0.00224778 3.10662 1.69224e-18)
(0.261738 0.666764 0)
(0.219511 0.655627 -8.0483e-19)
(0.102377 0.220434 3.58358e-19)
(0.337444 0.878172 8.6312e-19)
(0.17881 0.250123 -1.32733e-18)
(1.16581 0.173442 5.06682e-21)
(1.17637 0.307992 0)
(1.1536 0.121042 5.21832e-20)
(-0.00697136 2.20513 3.70146e-22)
(-0.0027772 2.20905 0)
(0.0361437 1.95971 0)
(0.336683 1.2634 -3.04355e-19)
(0.359722 1.08737 -6.52573e-19)
(0.190968 0.343909 1.14497e-18)
(1.00586 -0.0108781 0)
(1.00766 -0.00767543 3.48883e-19)
(-0.283384 1.37985 0)
(-0.263021 1.2044 0)
(1.00221 0.00347353 1.77485e-21)
(1.00369 0.00944652 7.13833e-19)
(-0.16987 2.3791 9.67963e-20)
(-0.174121 2.41591 0)
(0.0368573 3.17964 2.57268e-19)
(0.396228 3.4934 0)
(1.13115 0.65277 -1.43898e-22)
(1.01301 0.0129592 -2.15342e-21)
(1.02117 -0.0105127 0)
(1.00171 0.000143232 7.55028e-23)
(0.0998872 1.35453 0)
(0.142773 2.57922 0)
(0.0562549 1.27196 0)
(0.000676722 2.62091 -7.92833e-20)
(-0.0263992 2.57995 -8.36189e-20)
(1.00482 0.028229 2.67907e-21)
(1.06122 0.00167814 0)
(1.08874 0.0142249 0)
(-0.349586 2.05508 0)
(-0.23671 2.55095 0)
(-0.081537 1.05561 0)
(0.278103 1.46293 -3.04939e-19)
(1.01124 -0.00970746 0)
(1.00936 -0.0149592 0)
(1.00239 0.000724791 4.4516e-19)
(1.00548 -0.00484947 -5.23913e-19)
(1.00117 -0.00104162 0)
(-0.376775 1.81815 0)
(-0.335189 1.41357 0)
(-0.348635 1.64317 0)
(-0.0897295 1.02361 0)
(-0.174161 1.06393 0)
(-0.0945177 0.968705 0)
(1.03417 -0.0068462 0)
(1.02094 0.0156468 -9.54349e-22)
(0.792099 1.256 3.88539e-19)
(1.00231 0.000317857 -4.44452e-19)
(1.00407 0.00522405 5.20876e-19)
(1.00116 0.0020407 0)
(1.01285 0.0102454 4.39239e-19)
(1.00807 0.00828167 -5.36036e-19)
(1.00861 0.0146916 0)
(-0.233983 2.57152 0)
(-0.21657 2.5219 -2.66883e-19)
(-0.238976 2.49918 1.95696e-19)
(1.2058 0.261332 2.60776e-19)
(1.14341 0.0818843 0)
(0.0463566 3.07756 -7.10504e-19)
(0.0661669 2.85327 -5.36307e-20)
(0.143144 3.19433 1.10546e-18)
(0.138154 3.22331 -9.72276e-20)
(0.136278 3.23599 0)
(0.020667 3.13771 1.72339e-19)
(0.0776308 3.16111 6.97563e-19)
(0.0704857 3.18721 -3.27565e-19)
(0.0234079 3.12953 0)
(0.660977 0.302651 0)
(0.576036 0.367699 0)
(1.10339 0.682246 -4.71013e-20)
(1.10041 0.813817 -3.90822e-21)
(1.16001 0.570285 0)
(1.18977 0.512613 0)
(1.0162 0.0132219 -8.16727e-19)
(1.01499 0.0142309 -1.55426e-21)
(1.02506 -0.0100206 0)
(1.02309 -0.0120741 0)
(1.00645 0.00260172 0)
(1.01037 0.00367365 0)
(1.00443 0.00190468 0)
(1.00981 0.0060157 0)
(1.00795 0.00592906 0)
(1.00448 0.00466395 0)
(0.0915702 1.34979 0)
(0.0843643 1.31776 0)
(0.113394 1.38275 0)
(0.127333 1.40431 0)
(0.144714 2.60251 0)
(0.1867 2.66415 -3.14413e-19)
(0.102693 2.65953 0)
(0.0848736 2.66225 8.48945e-20)
(0.0415611 2.67662 1.70117e-20)
(0.0769391 1.25232 0)
(0.0704135 1.1519 0)
(0.030706 1.3077 0)
(0.0200544 1.2606 0)
(-0.0133674 1.98002 1.01707e-19)
(-0.0360122 2.60466 -1.2819e-19)
(-0.0155473 2.66415 -1.42064e-19)
(-0.0245795 2.6712 0)
(-0.050687 2.61024 2.38441e-19)
(-0.0419559 2.59978 1.40855e-19)
(-0.0131864 1.97875 -7.38722e-20)
(-0.0335015 2.42499 1.71889e-19)
(-0.014589 2.43017 1.61078e-19)
(1.01395 0.0346366 8.25917e-19)
(1.00865 0.017634 2.94923e-21)
(1.00561 0.0418299 -8.32319e-19)
(0.985638 0.0233699 1.06235e-18)
(1.06204 0.00575083 0)
(1.04753 -0.00952622 0)
(1.0876 0.024782 0)
(1.07021 0.00817244 0)
(1.06703 -0.00273114 0)
(1.12657 0.0725252 0)
(1.10041 0.0352787 0)
(1.10183 0.0255414 0)
(-0.213999 2.43565 2.13272e-20)
(-0.354331 2.29617 0)
(-0.279986 2.32022 0)
(-0.201011 2.60627 -1.2315e-19)
(-0.143425 2.5591 1.64133e-21)
(-0.283396 1.97243 -3.43513e-19)
(-0.32379 1.83296 3.45124e-19)
(-0.161601 1.37172 0)
(-0.275014 1.40123 0)
(-0.313871 1.44135 0)
(-0.0142746 1.04532 0)
(-0.0235837 0.938241 0)
(0.372833 1.47628 5.60267e-19)
(0.406682 1.48638 2.38176e-19)
(0.593915 2.45039 -1.93836e-19)
(0.405627 2.54327 5.51634e-19)
(0.354625 2.08221 7.16132e-21)
(1.02081 -0.00831049 0)
(1.01539 -0.00988026 0)
(1.01482 -0.0156443 0)
(1.00749 -0.00133097 0)
(1.00498 -0.00101057 0)
(1.00775 -0.0048472 0)
(1.00921 -0.00387385 0)
(1.01412 -0.00458057 0)
(1.02164 0.0157838 7.92689e-19)
(1.01831 0.0157361 -1.01842e-18)
(1.02212 0.017627 -7.96661e-19)
(1.0197 0.0163576 9.98761e-19)
(0.760435 1.30553 0)
(0.69385 1.36003 4.30179e-19)
(0.869188 1.20179 2.25103e-19)
(0.912422 1.15819 -2.99609e-19)
(1.16003 2.61105 -1.44741e-19)
(0.821333 0.0958771 4.43609e-19)
(1.1432 0.100558 0)
(1.18595 0.186816 -2.06863e-19)
(1.17098 0.155724 -8.61517e-21)
(1.00458 0.131149 0)
(0.1393 2.96293 3.30778e-19)
(0.116407 2.86871 -9.10244e-19)
(0.0281712 2.36924 6.283e-19)
(0.0934734 0.0165997 -2.73595e-19)
(0.340876 3.42237 -3.30456e-19)
(0.19512 3.31494 0)
(0.237582 3.35716 4.30363e-19)
(0.247155 3.03596 -1.26032e-18)
(0.341989 3.19474 0)
(0.0060225 3.12102 3.5849e-20)
(0.0162534 3.12979 -4.36422e-19)
(0.0144283 3.12579 6.42328e-19)
(0.0359892 3.14016 0)
(0.0346174 3.15081 0)
(1.21823 2.61072 0)
(0.538066 0.842355 -3.81381e-19)
(1.03218 0.984908 -1.00634e-19)
(0.970293 1.05506 0)
(0.815727 0.957956 -2.74793e-20)
(1.05528 0.872407 2.98248e-20)
(0.369346 0.415965 -7.1964e-19)
(0.702474 0.32392 -2.2335e-20)
(0.687895 0.254319 3.28125e-19)
(0.591895 0.396993 2.46436e-20)
(0.5114 0.373087 -9.97263e-19)
(0.672268 0.34324 0)
(0.697227 0.429706 5.49379e-19)
(0.704333 0.427157 0)
(0.629156 0.3823 0)
(0.609098 0.310712 0)
(0.782654 0.616179 2.76449e-19)
(1.2022 0.279812 -5.62963e-20)
(1.19795 0.414769 0)
(1.21117 0.364171 0)
(0.76536 0.197887 4.87224e-19)
(0.827917 0.539533 -2.91538e-19)
(0.733791 0.516358 -4.99563e-19)
(0.926861 0.419387 -5.24477e-19)
(1.01995 0.0144933 5.46648e-19)
(1.01797 0.0141215 -5.52626e-19)
(1.01595 0.0156951 0)
(1.03557 -0.00643128 0)
(1.02939 -0.00890681 -5.10811e-19)
(1.02714 -0.012494 5.05645e-19)
(1.02516 0.00939488 0)
(1.0237 0.0129964 0)
(1.01139 0.00395654 0)
(1.01432 0.0088174 0)
(1.01507 0.00373694 0)
(1.01418 0.00268249 0)
(0.0706101 1.33427 0)
(0.0675767 1.29535 0)
(0.148182 1.34082 1.71467e-19)
(0.259507 1.46041 1.70182e-19)
(0.150334 1.43411 3.60043e-19)
(0.180804 1.44153 -1.90373e-19)
(0.166853 1.37062 0)
(0.123107 1.58982 1.09863e-19)
(0.110199 1.55922 0)
(0.3518 2.03727 -1.04075e-20)
(0.351897 2.36878 4.14412e-19)
(0.182877 1.44098 -9.58714e-20)
(0.260546 1.36268 1.11291e-19)
(0.190344 1.35308 8.9318e-20)
(0.268084 1.30313 1.20639e-19)
(0.234098 1.57397 -4.8822e-20)
(0.259557 1.61564 -5.78341e-20)
(0.0288047 2.27238 3.51869e-20)
(0.0387172 2.66976 0)
(0.0625253 2.4109 -2.68974e-20)
(0.0537714 2.43135 0)
(0.0700952 2.67371 -9.48086e-20)
(0.0509996 2.69873 0)
(0.0584089 1.43771 1.91274e-19)
(0.0147184 1.47398 0)
(0.0243831 1.39347 0)
(0.0602091 1.39637 -2.09588e-19)
(-0.00312028 2.64912 -1.9741e-20)
(0.0248305 2.69729 -3.91038e-20)
(0.00931452 2.71694 -2.95149e-22)
(0.0644681 1.90193 -1.41271e-19)
(0.0167156 1.6583 4.85012e-20)
(0.071293 1.13524 0)
(0.0487377 1.02202 0)
(0.0290425 1.57562 -2.44309e-19)
(0.0227166 1.44473 -2.31074e-19)
(0.0393185 1.50872 2.96971e-19)
(0.0291588 1.60201 0)
(-0.21286 2.48027 6.80096e-19)
(-0.214741 2.61573 -2.85421e-19)
(-0.140084 2.57327 6.26567e-20)
(0.0102664 1.93132 1.7052e-19)
(-0.0815583 2.53913 6.7267e-20)
(-0.0367281 2.47233 -2.01978e-19)
(1.02062 0.0202359 -5.41703e-19)
(1.01744 0.0252163 5.44015e-19)
(1.01488 0.016479 0)
(1.01821 0.0630802 7.54981e-19)
(0.996476 0.0544667 -8.72736e-19)
(0.9589 0.0402017 9.85241e-19)
(1.01764 0.0948994 -1.015e-19)
(1.04183 -0.00639346 0)
(1.04964 -0.00237197 4.79255e-19)
(1.03808 -0.0105391 -4.79949e-19)
(1.06772 0.0343436 -2.78896e-20)
(1.06242 0.0179334 2.42863e-19)
(1.06114 0.0453634 0)
(1.05612 0.0394485 -8.79407e-20)
(1.03307 0.0372747 0)
(1.02696 0.034272 0)
(1.02762 0.0122236 0)
(1.02437 0.0151923 0)
(1.03899 0.0278717 1.81922e-19)
(1.03794 0.0236581 -4.05477e-19)
(1.051 0.0282242 -1.91047e-19)
(1.04807 0.0279921 -2.11955e-19)
(1.07144 0.0516378 4.05895e-19)
(1.08794 0.0417135 0)
(1.09468 0.0884162 0)
(-0.228832 2.49099 3.28515e-19)
(-0.301917 2.31054 3.0941e-20)
(-0.290312 2.35198 0)
(-0.247841 2.51767 -3.05619e-19)
(-0.245797 2.46993 -5.09549e-20)
(-0.226219 2.5136 5.90113e-20)
(-0.072986 2.60995 -1.13958e-19)
(-0.12177 2.59849 1.20301e-20)
(-0.083272 2.55036 -5.31404e-20)
(-0.119619 2.6099 7.72928e-20)
(-0.0721635 2.58029 -5.11245e-21)
(-0.134249 1.66612 -8.24675e-21)
(-0.176332 2.01505 -4.68947e-19)
(0.363316 1.41293 -2.67866e-19)
(0.361033 1.35354 -1.95849e-19)
(0.641553 1.40597 -4.16054e-19)
(0.508524 1.4721 -2.30702e-19)
(0.55933 1.44612 0)
(0.589873 2.42501 1.64826e-19)
(0.657026 2.41527 2.78065e-19)
(0.411047 2.51968 8.08441e-20)
(0.405073 2.55699 -3.7664e-19)
(0.515619 2.50944 4.2199e-19)
(0.548235 2.46379 0)
(0.488241 2.5146 -4.50906e-19)
(0.246823 2.59168 8.64208e-19)
(0.352736 2.56855 -8.11109e-20)
(0.284346 2.65169 -1.22882e-18)
(0.935475 2.38495 4.74518e-19)
(0.830621 2.38759 0)
(1.01109 0.000208737 1.79408e-20)
(1.01528 -0.00553785 -1.45689e-20)
(1.01744 -0.00365767 -2.64866e-19)
(1.01484 -0.00114917 2.66691e-19)
(1.01233 0.000757177 0)
(0.628101 1.27231 0)
(0.649365 1.16606 0)
(0.750046 1.07217 0)
(0.641282 1.13426 0)
(1.18765 2.62671 5.79637e-20)
(1.07821 2.37092 0)
(0.845077 2.19777 9.23275e-22)
(0.827873 2.46487 0)
(0.922701 2.55216 -1.8568e-19)
(0.959651 2.5062 0)
(0.833387 0.145636 0)
(0.803148 0.133872 1.23767e-19)
(0.925219 0.122025 6.85208e-19)
(0.851348 0.11956 -2.64197e-19)
(0.832675 0.0605973 -7.99419e-19)
(1.06094 0.222239 -5.76129e-19)
(0.980347 0.275712 -1.56683e-20)
(0.910342 0.272067 6.35218e-19)
(0.995028 0.204356 5.09849e-19)
(0.946429 0.162373 -8.95215e-19)
(0.916985 0.170045 1.13292e-19)
(0.943803 0.233031 -2.35725e-19)
(0.922471 0.193201 0)
(0.99126 0.164213 -4.37735e-19)
(1.03797 0.170629 0)
(1.03352 0.197064 0)
(1.09235 0.110475 1.85139e-19)
(1.06491 0.16203 -1.35157e-20)
(1.05512 0.226105 -2.94536e-19)
(1.08765 0.195419 0)
(1.02395 0.0417108 4.17746e-19)
(1.04378 0.0504253 5.11927e-19)
(1.03435 0.0385442 -4.1475e-19)
(1.04575 0.055789 -3.43459e-19)
(1.02033 0.0650457 -5.32999e-19)
(0.9903 0.135158 0)
(1.00356 0.089746 0)
(0.973618 0.0550396 -3.52588e-19)
(0.925845 0.0707317 1.41408e-19)
(1.04198 0.0910835 4.77596e-19)
(1.0676 0.110909 -5.41735e-19)
(1.07154 0.141216 4.87519e-19)
(1.03362 0.129436 0)
(1.07399 0.0963165 0)
(1.06033 0.0774019 -2.21782e-19)
(1.05072 0.0854145 -3.88653e-19)
(0.587726 1.08885 1.97624e-20)
(0.61875 1.41629 8.07055e-20)
(1.15955 2.74264 -5.93427e-20)
(1.22549 3.08344 -3.551e-20)
(1.25116 2.72525 2.27098e-19)
(1.28143 2.70891 -1.91072e-19)
(1.2099 2.3498 -9.7465e-21)
(1.21273 2.98756 5.44405e-20)
(1.23208 2.95281 4.02626e-21)
(1.21658 3.23723 -2.07985e-19)
(1.37768 2.9694 2.8769e-19)
(1.36867 2.88774 0)
(0.542636 0.849271 -3.11139e-20)
(0.140966 1.26339 4.68865e-19)
(0.526134 0.471703 4.69727e-19)
(0.361007 0.225005 5.12819e-19)
(0.530377 0.40351 5.61183e-19)
(0.538602 0.490811 -9.05542e-19)
(0.541238 0.495921 7.41224e-19)
(0.495439 0.422023 -2.83619e-19)
(0.425331 0.361869 6.49104e-19)
(0.767692 0.25468 8.44707e-19)
(0.727244 0.291276 0)
(0.724097 0.227653 9.97955e-21)
(0.713029 0.515313 2.86573e-19)
(0.684299 0.489575 -1.04934e-18)
(0.604946 0.488898 1.6458e-20)
(0.622004 0.473671 0)
(0.668773 0.738489 2.72449e-19)
(0.812504 0.76856 2.26729e-19)
(0.742206 0.852077 -2.69416e-19)
(0.855084 0.800475 -8.80659e-20)
(0.88759 0.839643 -1.24168e-20)
(0.895924 0.841452 1.27102e-20)
(0.821901 0.643216 -4.62305e-19)
(0.899203 0.694595 8.18062e-20)
(0.957396 0.707632 0)
(0.946067 0.683761 -1.09908e-19)
(1.0061 0.317017 1.40961e-19)
(1.115 0.288903 1.51391e-19)
(1.04529 0.259757 2.35396e-19)
(0.986142 0.350079 -2.92873e-19)
(1.02866 0.416624 0)
(1.08316 0.404459 0)
(0.898493 0.349575 4.71368e-21)
(0.837748 0.284183 0)
(0.858899 0.274374 3.08076e-19)
(0.894685 0.278332 -6.33348e-21)
(0.918046 0.422583 1.45392e-18)
(0.874841 0.484337 3.73213e-19)
(0.880292 0.449239 -4.19481e-19)
(0.811346 0.437291 -4.49763e-19)
(0.793239 0.431937 2.81263e-19)
(0.764889 0.417125 -2.7633e-19)
(1.0272 -0.000647521 4.38444e-19)
(1.02013 -0.000293786 0)
(1.0186 0.000587696 2.86572e-19)
(1.02112 -0.00213743 -3.36023e-21)
(1.02247 0.00415194 3.1511e-19)
(1.02048 0.0108113 -6.59974e-19)
(1.02148 0.0102259 0)
(1.02087 0.010462 -1.38063e-19)
(1.01613 0.00738226 3.4632e-19)
(1.01681 0.0101703 -1.72862e-19)
(1.01747 0.00954569 1.27304e-19)
(0.048124 1.31752 0)
(0.0344885 1.36765 0)
(0.0503931 1.31912 0)
(0.0313637 1.27824 0)
(0.0760285 1.37063 -3.82123e-19)
(0.0847932 1.34112 1.23733e-19)
(0.101683 1.4955 7.64917e-20)
(0.0917742 1.33673 -8.76372e-20)
(0.0275238 1.45406 2.22829e-19)
(0.0320532 1.44533 -1.71831e-19)
(0.0641937 1.35245 -5.43157e-21)
(0.0554984 1.35523 -3.08071e-19)
(0.049146 1.33493 3.47521e-20)
(0.0319918 1.36663 -2.9267e-20)
(0.104295 2.38683 3.17467e-20)
(0.0945435 2.43003 0)
(0.161633 2.06628 3.19301e-20)
(0.106701 1.70732 -3.59349e-20)
(0.225829 2.06031 -2.56905e-20)
(0.211882 2.45648 0)
(0.268523 2.40977 -3.34408e-19)
(0.303295 2.40907 2.38762e-19)
(0.229022 2.01919 -9.40432e-20)
(0.148591 2.18556 7.21977e-20)
(0.143872 2.3076 0)
(0.0287622 1.88329 2.47025e-19)
(-0.00755426 2.40664 1.95406e-19)
(-0.0215744 2.15295 0)
(0.00303943 2.46435 -1.28047e-20)
(0.028505 2.31451 -1.07081e-19)
(0.0991249 1.43643 -4.01771e-20)
(0.14147 1.37034 6.98206e-19)
(0.108558 1.42634 -2.35027e-19)
(0.0900399 1.45331 -1.90721e-19)
(0.0846734 1.46433 0)
(0.102834 1.39986 0)
(-0.031625 1.05126 -3.33747e-19)
(0.0784135 1.31101 1.01032e-19)
(0.1207 1.34174 0)
(0.0362276 1.04224 -2.1944e-19)
(0.0147016 0.91651 4.64572e-19)
(1.04028 0.0107322 0)
(1.0456 0.00710076 -4.49292e-20)
(1.03849 0.0205298 -3.2548e-19)
(1.04752 0.0185265 0)
(1.05219 0.0181216 0)
(1.03564 0.0105029 -6.41807e-21)
(1.03139 0.0104437 5.25735e-19)
(1.03135 0.0152906 6.39171e-19)
(1.02614 0.0190456 0)
(1.02359 0.0198557 0)
(1.03475 0.0231713 3.25526e-19)
(1.02586 0.0247413 0)
(1.02548 0.02407 0)
(-0.0213359 2.22054 0)
(-0.0986582 2.04532 6.83288e-21)
(-0.0897848 2.14785 -1.55556e-19)
(0.0593214 1.3106 0)
(0.0431769 1.75517 -2.0208e-19)
(0.0342461 1.49396 1.72161e-19)
(0.0225352 1.27768 0)
(0.39467 1.69208 0)
(0.361351 1.28009 3.14055e-19)
(0.304897 1.33635 0)
(0.416591 1.27932 -2.53533e-19)
(0.460483 1.44489 0)
(0.441739 1.3886 2.17978e-19)
(1.03224 2.69709 -9.75547e-21)
(0.958536 2.41671 -6.31355e-19)
(0.904919 2.18553 6.87007e-19)
(0.843232 2.38011 1.7849e-19)
(0.845078 2.51127 0)
(0.915241 2.50517 0)
(0.918829 2.37881 0)
(0.896465 2.36302 -6.88295e-19)
(0.692874 2.4842 -1.90905e-19)
(0.80171 2.47597 -5.24334e-20)
(0.813346 2.44687 4.01321e-20)
(0.691265 2.39258 0)
(0.795189 2.39061 0)
(0.7543 2.40159 -2.93565e-19)
(0.76969 2.50169 0)
(0.613249 1.08714 0)
(0.48974 0.933289 -2.49646e-19)
(0.557415 0.96512 -1.64303e-20)
(0.52948 1.06532 0)
(0.528991 1.01468 3.75911e-19)
(0.765826 0.874933 -5.75371e-20)
(0.776108 1.00916 0)
(0.74943 0.963824 6.13019e-20)
(0.64171 1.02888 0)
(0.644522 0.941354 0)
(1.16622 2.76448 -8.37491e-20)
(1.14454 2.82798 1.57102e-20)
(0.936344 2.35083 -9.61858e-20)
(0.903206 2.3299 -1.97559e-20)
(1.13078 2.73918 0)
(1.08319 2.71006 2.67655e-20)
(1.09012 2.49226 -1.95748e-19)
(0.985564 2.23673 -3.08096e-20)
(0.504738 1.37046 0)
(0.518741 1.08276 -1.74509e-20)
(0.554701 1.15396 0)
(0.860111 0.214079 0)
(0.809509 0.170137 0)
(0.768079 0.149349 0)
(0.854053 0.222752 -4.84783e-19)
(0.786171 0.213626 2.90647e-19)
(0.935409 0.0574984 -2.91256e-19)
(0.950481 0.103504 0)
(0.926087 0.10868 1.27329e-19)
(0.874845 0.0862337 5.1371e-19)
(0.85722 0.0475078 -3.19414e-19)
(1.16375 3.36273 -8.5555e-19)
(1.21147 3.28192 0)
(1.16215 3.39089 -1.71994e-18)
(0.64886 3.55171 1.46932e-18)
(0.87394 3.11891 2.28937e-19)
(0.516501 0.857682 4.12726e-19)
(0.436807 0.854105 0)
(0.340545 0.504589 -1.16604e-19)
(0.442002 0.688437 -6.18412e-19)
(0.528525 0.477019 -1.58591e-19)
(0.504188 0.526535 1.8177e-19)
(0.649705 0.543314 3.90483e-19)
(0.6787 0.562806 0)
(0.630809 0.625127 0)
(0.588779 0.563591 0)
(0.953616 0.594341 2.26869e-20)
(0.877891 0.534018 -3.62551e-19)
(0.900966 0.565933 2.4724e-19)
(0.936391 0.501796 -2.76868e-19)
(1.04022 0.475216 0)
(1.04868 0.564662 -5.42839e-20)
(0.836411 0.387498 -6.35377e-19)
(0.840729 0.372569 9.90648e-19)
(0.790235 0.383982 4.96456e-19)
(0.783288 0.355841 -5.27461e-19)
(0.836768 0.31195 -4.02404e-19)
(0.792196 0.309594 4.94932e-19)
(1.02651 0.00558133 -3.34387e-19)
(1.02627 0.00574824 6.80602e-19)
(1.02941 -0.000449788 4.22398e-19)
(1.0331 0.000326079 -5.08209e-19)
(1.03308 0.0076753 0)
(1.02991 0.00853544 -8.22346e-19)
(0.0511055 1.6462 -1.92501e-20)
(0.0342736 1.57413 0)
(0.0841001 1.69521 -2.02702e-19)
(0.0784679 1.67734 1.90802e-19)
(0.0910636 1.52851 -1.43523e-19)
(0.0897734 1.50495 0)
(0.130973 1.81755 0)
(0.091879 1.61027 8.52541e-20)
(0.114929 1.45932 -7.59582e-20)
(0.082268 1.66394 1.8932e-20)
(0.0253392 2.09913 1.5178e-19)
(0.0287946 2.08205 2.24499e-19)
(0.498092 1.37998 9.09036e-20)
(0.490874 1.38548 1.08546e-19)
(0.43806 1.27766 2.06667e-19)
(0.433814 1.29454 -9.80595e-21)
(0.622993 1.28753 0)
(0.537507 1.37457 3.24159e-19)
(0.554591 1.38362 -3.1561e-19)
(0.444431 1.26649 -1.99361e-19)
(0.500333 1.22048 0)
(0.556545 1.19089 0)
(0.659396 2.4435 2.805e-19)
(0.669502 2.47476 8.7388e-19)
(0.717434 2.49028 -6.01331e-19)
(0.620762 2.47189 -1.60655e-19)
(0.56323 2.56251 1.84981e-19)
(0.51275 2.53467 -5.07795e-19)
(0.972774 2.38141 -3.79784e-19)
(1.01209 2.39759 0)
(0.918321 2.1656 -4.55613e-19)
(1.05223 2.69048 0)
(1.05444 2.67754 0)
(0.614489 2.27819 5.92918e-20)
(1.04439 3.16527 3.1028e-19)
(0.915445 3.0355 -2.35075e-19)
(0.284309 0.923702 0)
(0.323188 0.784607 -2.34824e-19)
(0.481402 0.739391 -8.94063e-19)
(0.39027 2.02667 0)
(0.469026 2.78772 -1.5939e-19)
(0.424644 2.55202 0)
(0.67807 0.688634 -5.73717e-19)
(0.756378 0.679433 7.70491e-19)
(0.774896 0.624633 5.03273e-19)
(0.657027 0.652417 7.75768e-20)
(0.712174 0.600828 -3.20843e-19)
(1.00693 2.76912 -2.3593e-19)
(1.04336 2.82449 6.6647e-20)
(0.640996 2.15404 3.73121e-19)
(0.600183 1.72196 -2.81778e-19)
(0.703811 1.91268 -1.43368e-19)
(0.993146 2.45245 -9.11267e-20)
(0.997234 2.4448 6.23784e-20)
(0.66347 1.8513 1.1287e-20)
(0.457789 1.34301 2.20453e-19)
)
;

boundaryField
{
    wall-4
    {
        type            noSlip;
    }
    velocity-inlet-5
    {
        type            fixedValue;
        value           uniform (1 0 0);
    }
    velocity-inlet-6
    {
        type            fixedValue;
        value           uniform (0 3 0);
    }
    pressure-outlet-7
    {
        type            zeroGradient;
    }
    wall-8
    {
        type            noSlip;
    }
    frontAndBackPlanes
    {
        type            empty;
    }
}


// ************************************************************************* //
