/*--------------------------------*- C++ -*----------------------------------*\
| =========                 |                                                 |
| \\      /  F ield         | OpenFOAM: The Open Source CFD Toolbox           |
|  \\    /   O peration     | Version:  2412                                  |
|   \\  /    A nd           | Website:  www.openfoam.com                      |
|    \\/     M anipulation  |                                                 |
\*---------------------------------------------------------------------------*/
FoamFile
{
    version     2.0;
    format      ascii;
    arch        "LSB;label=32;scalar=64";
    class       volVectorField;
    location    "1";
    object      U;
}
// * * * * * * * * * * * * * * * * * * * * * * * * * * * * * * * * * * * * * //

dimensions      [0 1 -1 0 0 0 0];

internalField   nonuniform List<vector> 
38
(
(0.850333 0.0589053 0)
(0.723526 0.165413 7.8382e-19)
(0.729097 0.148448 -7.60557e-19)
(0.888665 0.0958137 0)
(0.838003 0.0351165 0)
(0.817286 0.0281558 3.59724e-18)
(0.752929 0.153371 1.24504e-18)
(0.746429 0.0852298 -1.23006e-18)
(0.777272 0.101107 0)
(0.81573 0.0581707 -5.74364e-18)
(0.762406 0.049998 2.196e-18)
(0.858962 0.105171 1.37072e-18)
(0.969652 0.139642 0)
(0.826578 0.118944 0)
(0.786794 0.119645 3.70001e-19)
(0.888281 0.0982346 2.25293e-18)
(0.844045 0.0912928 -8.03074e-19)
(0.841601 0.116468 -2.55324e-18)
(0.877778 0.229549 1.98251e-18)
(0.858598 0.179342 -3.09506e-18)
(0.872526 0.260549 3.69218e-19)
(0.744169 0.297934 9.23395e-19)
(0.826448 0.259095 0)
(0.949069 0.124716 1.48489e-18)
(0.910943 0.187927 0)
(0.894817 -0.0158935 4.87115e-19)
(0.686067 0.291469 9.29494e-19)
(0.883016 0.255557 -2.52609e-18)
(0.808281 0.171829 0)
(0.804195 0.182555 0)
(0.729638 0.206384 0)
(0.789313 0.255114 -1.45381e-18)
(0.753505 0.207427 -8.0124e-19)
(0.958891 -0.0258282 -9.96583e-19)
(0.89965 0.0460353 0)
(0.88008 0.0273418 4.303e-19)
(0.839931 0.122377 1.71364e-18)
(0.829532 0.0252879 -1.10867e-18)
)
;

boundaryField
{
    wall-4
    {
        type            noSlip;
    }
    velocity-inlet-5
    {
        type            fixedValue;
        value           nonuniform List<vector> 0();
    }
    velocity-inlet-6
    {
        type            fixedValue;
        value           nonuniform List<vector> 0();
    }
    pressure-outlet-7
    {
        type            zeroGradient;
    }
    wall-8
    {
        type            noSlip;
    }
    frontAndBackPlanes
    {
        type            empty;
    }
    procBoundary10to8
    {
        type            processor;
        value           nonuniform List<vector> 4((0.68945 0.161343 2.28867e-18) (0.767304 0.213266 1.31023e-18) (0.736754 0.42447 -1.59828e-20) (0.767887 0.258225 0));
    }
    procBoundary10to9
    {
        type            processor;
        value           nonuniform List<vector> 3((0.806197 0.347118 -6.18176e-20) (0.924783 0.125537 2.00525e-18) (0.983115 0.187589 0));
    }
    procBoundary10to11
    {
        type            processor;
        value           nonuniform List<vector> 4((0.893004 0.0200075 0) (0.922066 0.167201 0) (0.958722 0.00858737 0) (0.907778 0.0913497 -1.30064e-18));
    }
}


// ************************************************************************* //
