/*--------------------------------*- C++ -*----------------------------------*\
| =========                 |                                                 |
| \\      /  F ield         | OpenFOAM: The Open Source CFD Toolbox           |
|  \\    /   O peration     | Version:  2412                                  |
|   \\  /    A nd           | Website:  www.openfoam.com                      |
|    \\/     M anipulation  |                                                 |
\*---------------------------------------------------------------------------*/
FoamFile
{
    version     2.0;
    format      ascii;
    arch        "LSB;label=32;scalar=64";
    class       surfaceScalarField;
    location    "5";
    object      phi;
}
// * * * * * * * * * * * * * * * * * * * * * * * * * * * * * * * * * * * * * //

dimensions      [0 3 -1 0 0 0 0];

oriented        oriented;

internalField   nonuniform List<scalar> 
48
(
-1.07798
1.07798
-1.38851
0.310531
-1.38851
1.07968
-0.00170144
1.07968
-1.8867
0.498182
-1.83427
1.83427
-1.38064
-0.453626
1.38064
-0.300956
-2.27955
-0.362493
2.27955
-0.445282
7.33268
-7.02215
5.39615
-4.92792
3.94234
3.39034
3.94063
6.77735
-9.67879
-4.42929
-3.62952
3.13134
1.70516
-6.13445
-3.22276
-3.66804
5.94176
0.674676
6.66895
-0.727185
7.34362
3.21345
2.91249
-2.74198
-0.926062
3.1956
-0.28311
7.06052
)
;

boundaryField
{
    wall-4
    {
        type            calculated;
        value           nonuniform List<scalar> 0();
    }
    velocity-inlet-5
    {
        type            calculated;
        value           nonuniform List<scalar> 0();
    }
    velocity-inlet-6
    {
        type            calculated;
        value           nonuniform List<scalar> 0();
    }
    pressure-outlet-7
    {
        type            calculated;
        value           nonuniform List<scalar> 0();
    }
    wall-8
    {
        type            calculated;
        value           uniform 0;
    }
    frontAndBackPlanes
    {
        type            empty;
    }
    procBoundary18to19
    {
        type            processor;
        value           nonuniform List<scalar> 4(-3.39262 2.26481 -2.55142 -10.3535);
    }
    procBoundary18to20
    {
        type            processor;
        value           nonuniform List<scalar> 3(-1.8867 -0.88927 -4.50689);
    }
    procBoundary18to21
    {
        type            processor;
        value           uniform 2.90144;
    }
    procBoundary18to23
    {
        type            processor;
        value           nonuniform List<scalar> 3(2.64204 4.56543 11.2066);
    }
}


// ************************************************************************* //
