/*--------------------------------*- C++ -*----------------------------------*\
| =========                 |                                                 |
| \\      /  F ield         | OpenFOAM: The Open Source CFD Toolbox           |
|  \\    /   O peration     | Version:  2412                                  |
|   \\  /    A nd           | Website:  www.openfoam.com                      |
|    \\/     M anipulation  |                                                 |
\*---------------------------------------------------------------------------*/
FoamFile
{
    version     2.0;
    format      ascii;
    arch        "LSB;label=32;scalar=64";
    class       surfaceScalarField;
    location    "2";
    object      phi;
}
// * * * * * * * * * * * * * * * * * * * * * * * * * * * * * * * * * * * * * //

dimensions      [0 3 -1 0 0 0 0];

oriented        oriented;

internalField   nonuniform List<scalar> 
48
(
4.14725
-4.14725
3.92331
0.223941
3.92331
-4.48273
0.335478
-4.48273
3.13554
0.787765
3.13554
-4.86999
0.387262
-2.38943
2.38943
0.746113
-7.93799
8.16193
5.69257
9.84195
3.4003
-5.05429
-2.8837
4.71881
0.973758
10.8157
7.93201
0.117258
-3.9422
-3.52722
-2.78111
5.70523
3.71783
-6.49893
-0.224373
-5.71117
2.45076
4.66459
-2.21383
-1.65433
-5.97869
-3.01025
4.93096
0.774263
3.61182
-0.513755
-6.49245
-8.70627
)
;

boundaryField
{
    wall-4
    {
        type            calculated;
        value           uniform 0;
    }
    velocity-inlet-5
    {
        type            calculated;
        value           nonuniform List<scalar> 0();
    }
    velocity-inlet-6
    {
        type            calculated;
        value           nonuniform List<scalar> 0();
    }
    pressure-outlet-7
    {
        type            calculated;
        value           nonuniform List<scalar> 0();
    }
    wall-8
    {
        type            calculated;
        value           uniform 0;
    }
    frontAndBackPlanes
    {
        type            empty;
    }
    procBoundary20to1
    {
        type            processor;
        value           nonuniform List<scalar> 3(-4.86999 -5.3053 -13.2423);
    }
    procBoundary20to7
    {
        type            processor;
        value           uniform -2.30492;
    }
    procBoundary20to18
    {
        type            processor;
        value           nonuniform List<scalar> 3(1.99915 0.390277 3.64448);
    }
    procBoundary20to19
    {
        type            processor;
        value           nonuniform List<scalar> 5(3.82494 4.12558 1.31914 7.63302 2.78588);
    }
}


// ************************************************************************* //
