/*--------------------------------*- C++ -*----------------------------------*\
| =========                 |                                                 |
| \\      /  F ield         | OpenFOAM: The Open Source CFD Toolbox           |
|  \\    /   O peration     | Version:  2412                                  |
|   \\  /    A nd           | Website:  www.openfoam.com                      |
|    \\/     M anipulation  |                                                 |
\*---------------------------------------------------------------------------*/
FoamFile
{
    version     2.0;
    format      ascii;
    arch        "LSB;label=32;scalar=64";
    class       volScalarField;
    location    "18";
    object      p;
}
// * * * * * * * * * * * * * * * * * * * * * * * * * * * * * * * * * * * * * //

dimensions      [0 2 -2 0 0 0 0];

internalField   nonuniform List<scalar> 
918
(
0.254373
0.940073
0.0095717
0.253425
-0.00105713
0.907164
-0.812803
0.435735
0.234416
-0.405949
-0.00929708
0.223756
0.767774
0.533287
-1.43989
0.0087024
0.390371
-0.685863
0.233198
0.000434451
0.511666
0.241166
0.244136
0.234682
0.293527
0.523774
0.648218
0.00236396
-0.00191278
-0.0035035
0.00397102
-0.0052656
0.00159336
0.790795
0.841892
0.864555
0.20401
0.0332354
-0.661794
-0.741074
-0.725786
-0.864066
0.423484
0.427992
-0.459899
0.438937
0.454694
0.221896
0.233695
0.234582
0.235952
0.234772
0.236208
0.152168
-0.434261
-0.458514
-0.369181
-0.317299
0.0326831
-0.0227414
-0.0422151
0.00480618
0.00468932
0.161957
0.220543
0.219459
0.229453
0.238919
0.87962
0.851519
0.87765
0.791414
0.807874
0.745721
0.718168
0.554455
0.576021
0.517793
0.506432
-1.88287
-2.85636
-0.837811
-0.577668
0.000396024
0.0131636
0.0182874
0.376681
0.385209
0.386888
0.398778
0.806337
-0.677108
-0.806322
0.233174
0.231887
0.240635
0.241265
0.237259
0.236352
0.00757952
0.0133005
-0.00927368
-0.00215989
-0.00348522
0.493955
0.48963
0.235192
0.23223
0.2468
0.268756
0.257715
0.00502269
0.304888
0.326862
0.327784
0.504065
0.503224
0.510248
0.621745
0.5842
0.685522
0.708942
0.0121879
0.0034726
0.00541419
0.004469
0.00457934
0.199761
0.192691
0.216613
0.207325
0.209568
-0.0509226
-0.18615
0.11789
0.140743
-0.568574
-0.636073
-0.739659
-0.75727
-0.894648
0.248402
0.411227
0.414836
-0.475164
-0.391929
-0.540072
-0.318424
-0.390847
0.213523
0.219679
0.215237
0.229471
0.223993
0.226005
0.237924
0.234987
0.236559
0.2162
0.318876
0.097599
0.0749824
-0.556167
-0.477356
-0.547577
-0.253338
-0.199753
0.0248368
0.0170039
0.0168476
0.0279961
-0.152763
-0.0686542
-0.111271
0.0113544
0.0107454
0.155124
0.146125
0.170648
0.176893
0.211941
0.212928
0.216596
0.214756
0.668903
0.691367
0.69878
0.672437
-3.86798
-6.69159
-0.24343
-0.0989137
0.00288988
0.00264238
0.00178732
0.00392785
0.00262487
0.00108465
0.0193734
0.018372
0.0187696
0.0215493
0.360336
0.365366
0.727556
0.71489
0.711587
0.672706
0.22114
0.223178
0.228969
0.22482
0.0158757
0.0163764
0.0164415
0.455828
0.475704
0.473438
-0.0302323
-0.118653
0.0522367
0.0787326
0.347487
0.332458
0.349603
0.392597
0.428912
0.716401
0.73469
0.732996
0.741383
0.785384
0.801759
0.767096
0.18194
0.188722
0.185169
0.220398
0.21797
0.218719
0.212673
0.215252
0.211918
-0.340236
-0.726411
0.204729
0.218228
0.184335
0.19034
0.339045
0.411377
0.391984
0.402599
0.405754
-0.254607
-0.321001
0.0303378
0.0171811
0.103681
0.135084
0.118953
0.64012
0.60037
0.650359
0.623915
0.585361
0.611627
-0.678442
-2.20879
-1.30921
0.267865
0.0724596
0.164401
0.0309441
0.0169938
0.0234014
0.685063
0.755919
0.390702
0.586575
0.568949
0.470798
0.502283
0.557254
0.478679
0.51582
0.554556
0.536067
0.201414
0.202483
0.178966
0.479812
0.537198
-0.144475
-0.192733
-0.249536
-0.00784344
0.00017129
0.00415468
0.722222
0.602229
0.683866
0.232092
0.232763
0.0122543
0.0212758
0.236674
0.23659
0.00631153
0.00621326
0.144371
-1.15274
-0.149196
0.225163
0.215727
0.232287
-0.439188
0.0603456
-0.032516
0.106038
0.0682288
0.223198
0.171431
0.138005
0.00644209
0.0163783
0.00271074
-0.515853
0.22978
0.228121
0.231902
0.232916
0.233612
0.00713224
0.00862844
0.00616228
0.00338228
0.00467378
0.00150462
0.198673
0.212972
-0.462136
0.231828
0.23411
0.233839
0.226996
0.232453
0.230703
0.0127789
0.00751018
0.00723146
-0.0436226
0.0704511
0.40315
0.513653
0.354287
0.125359
-0.121054
0.298094
0.367595
0.263581
0.432395
0.39594
0.422767
-0.0894323
-0.236077
-0.082653
-0.139674
0.222834
0.22148
0.214052
0.212007
0.227218
0.22539
0.229786
0.226861
0.229605
0.231036
-0.451408
-0.362473
-0.44298
-0.453558
0.00790273
0.292346
-0.0793473
0.027424
0.00184586
-0.0150548
-0.00107406
-0.0555256
-0.0673614
0.000755013
0.0548631
0.0840908
0.0353899
0.06124
0.0232333
0.00357571
0.0281809
0.0121723
0.217926
0.214756
0.222371
0.22928
0.178944
0.181504
0.153659
0.169168
0.158611
0.102532
0.135178
0.113999
0.00674404
0.00774884
0.00555733
0.0195183
0.0206286
0.00814386
0.0078002
0.0126873
0.00819489
0.00731985
0.00619655
0.0117604
-0.479411
-0.585691
0.68899
0.640185
-0.0498178
0.218896
0.225319
0.22211
0.226686
0.22996
0.230788
0.22866
0.225009
0.21359
0.215667
0.211719
0.211325
-0.407083
-0.540008
-0.359063
-0.421138
-0.160305
0.337257
0.0825969
0.0238002
0.0194842
0.228946
0.614511
0.426424
0.466276
0.493156
-0.652913
-0.249838
-0.581995
0.0339547
-0.1485
0.40259
0.455535
0.478064
0.423858
0.372112
-0.413186
0.225106
-0.333765
-0.293357
-0.104997
-0.204115
0.448737
0.380026
0.387672
0.412833
0.437454
0.38826
0.36871
0.36516
0.401879
0.406234
0.203102
-0.0110589
-0.0573915
-0.0926435
0.368333
0.242898
0.29932
0.217309
0.217413
0.220717
0.21923
0.20269
0.209857
0.205777
0.209583
0.213079
0.222989
0.222631
0.218356
0.220818
-0.296219
-0.25416
-0.431407
-0.443333
-0.461102
-0.495531
-0.41679
-0.517459
-0.646231
-0.021781
0.0216584
-0.416875
-0.380219
-0.385804
-0.343376
-0.179026
-0.102849
-0.190731
-0.00802318
-0.171032
-0.13539
-0.011869
-0.0215804
-0.0355859
-0.0506063
-0.121881
-0.0607546
0.0562789
0.00196
0.0146671
0.0216671
0.0145127
0.000834907
0.0079717
-0.150909
-0.160203
-0.123572
-0.199642
0.0168053
0.019758
0.0225561
0.026074
0.0328256
0.0341208
0.21069
0.211341
0.210362
0.225335
0.236543
0.25137
0.219714
0.197477
0.189845
0.190273
0.168595
0.175915
0.173763
0.184967
0.202398
0.209965
0.207698
0.210534
0.196058
0.197443
0.185568
0.189351
0.169835
0.15257
0.142717
0.0127682
0.00806805
0.009046
0.00995552
0.00795905
0.0085594
0.0338006
0.0289673
0.0329666
0.025577
0.0212147
0.0144518
0.0131774
-0.391268
-0.304091
-0.487249
-0.523015
-0.585627
0.594266
0.722314
0.544591
0.297987
0.319898
0.541382
0.669303
0.276718
0.461601
0.514941
0.19938
0.498625
0.223461
0.223205
0.221279
0.220109
0.22127
-0.310821
-0.209704
-0.200193
-0.146668
-0.0292646
0.0841899
-0.0181231
-0.153566
-0.0083271
0.00500641
0.332148
0.346406
0.290341
0.317195
0.31684
0.14454
0.218168
0.27408
0.228558
0.270116
0.291974
0.25734
0.284101
0.231433
0.191413
0.19045
0.139768
0.15738
0.13485
0.11865
0.212866
0.193328
0.202559
0.195172
0.214007
0.241979
0.236901
0.259426
0.273279
0.201899
0.164891
0.173101
0.199663
0.163405
0.175121
0.188628
-0.0833876
-0.173594
-0.0972156
-0.400807
-0.306968
-0.32212
-0.368697
-0.331211
-0.0424978
-0.753647
-0.716143
-1.35452
0.16429
0.646147
0.399481
0.369153
0.434481
0.409744
0.410426
0.44611
0.453862
0.356522
0.373312
0.375368
0.332037
0.357618
0.385279
0.383302
0.206652
0.0933599
0.0797229
0.0502712
-0.0687325
-0.0387557
0.161427
0.0839037
0.0145317
0.0211498
0.179014
0.0756807
0.137504
0.172995
0.1072
0.0654788
0.257724
0.326339
0.315855
0.290579
0.207277
0.220165
0.243505
0.278602
0.305832
0.338414
0.211299
0.215855
0.216784
0.214994
0.211936
0.214617
0.214483
0.217224
0.218205
0.220931
0.220063
-0.109788
-0.140552
-0.210431
-0.149222
-0.52015
-0.553163
-0.582256
-0.507161
-0.208308
-0.255561
-0.402278
-0.314618
-0.240128
-0.204551
-0.358449
-0.319942
-0.322609
-0.450288
-0.0749755
0.079487
0.183569
0.0739212
-0.130314
-0.100401
-0.0638252
-0.105071
-0.00811741
-0.0085401
-0.0486674
-0.102568
0.00233912
-0.00272172
-0.0056405
0.000338438
-0.0107425
0.0010243
0.0130125
0.0109969
0.0102017
0.010079
0.0126948
0.200168
0.193365
0.19288
0.188991
0.188589
0.198025
0.202704
0.204325
0.208815
0.210667
0.202859
0.207394
0.210035
0.0207526
0.0181618
0.0214376
0.0112703
0.0142318
0.0144849
0.0115355
-0.188091
-0.212069
-0.178077
-0.293025
-0.41865
-0.37364
0.149796
0.121875
0.166751
0.372309
0.234884
0.146792
0.210668
0.321894
-0.0521179
0.165068
-0.0206213
0.580061
0.456119
0.5945
0.242956
-0.0743202
0.0680573
0.124694
-0.0692345
0.00300651
0.0201272
-0.0870501
-0.0536388
-0.0245921
0.0716635
-0.0425769
-0.0671893
-0.317038
-0.143133
-0.0059372
-0.0279704
0.101014
0.162509
-0.068742
-0.133042
-0.178564
0.320027
0.340896
0.358058
0.327099
0.35214
0.277998
0.269897
0.287376
0.298097
0.291968
-1.08922
-0.802792
-1.74278
-1.05737
-0.616063
0.190067
0.150944
0.430111
0.328609
0.411552
0.3953
0.359357
0.322519
0.328429
0.365648
0.0755843
0.181104
0.157688
0.161328
0.0687372
0.0057178
0.291744
0.286005
0.321044
0.345634
0.31479
0.347226
0.208252
0.207587
0.208707
0.205191
0.205013
0.20614
-0.336643
-0.296686
-0.411303
-0.441307
-0.497077
-0.454216
0.0270951
0.0142406
0.0130192
0.0145875
0.0269702
0.0282881
-0.162357
-0.209755
-0.273103
-0.252483
-0.309578
-0.371702
-0.390298
-0.292725
-0.215289
-0.217422
0.109103
0.368339
0.190187
0.369539
0.232972
0.279677
0.171668
0.165881
0.200364
0.0643454
0.132329
-0.129274
-0.617095
-0.529323
0.443342
0.46327
0.244872
0.0459028
-0.173997
0.0256221
0.240539
0.181642
0.221875
0.288282
0.281064
-0.323307
-0.2435
-0.0200555
0.211534
-0.0785058
-0.0926627
-0.0951699
0.0671628
0.000205124
)
;

boundaryField
{
    wall-4
    {
        type            zeroGradient;
    }
    velocity-inlet-5
    {
        type            zeroGradient;
    }
    velocity-inlet-6
    {
        type            zeroGradient;
    }
    pressure-outlet-7
    {
        type            fixedValue;
        value           uniform 0;
    }
    wall-8
    {
        type            zeroGradient;
    }
    frontAndBackPlanes
    {
        type            empty;
    }
}


// ************************************************************************* //
