/*--------------------------------*- C++ -*----------------------------------*\
| =========                 |                                                 |
| \\      /  F ield         | OpenFOAM: The Open Source CFD Toolbox           |
|  \\    /   O peration     | Version:  2412                                  |
|   \\  /    A nd           | Website:  www.openfoam.com                      |
|    \\/     M anipulation  |                                                 |
\*---------------------------------------------------------------------------*/
FoamFile
{
    version     2.0;
    format      ascii;
    arch        "LSB;label=32;scalar=64";
    class       surfaceScalarField;
    location    "18";
    object      phi;
}
// * * * * * * * * * * * * * * * * * * * * * * * * * * * * * * * * * * * * * //

dimensions      [0 3 -1 0 0 0 0];

oriented        oriented;

internalField   nonuniform List<scalar> 
1300
(
3.75095
5.62643
-6.074
3.75095
-5.90753
5.62643
-4.55493
4.55493
-1.32179
1.32179
1.87668
1.87428
-2.80418
2.80418
-4.28527
4.28527
-2.70561
2.70561
-5.2464
5.2464
-5.06776
5.06776
4.68508
-4.68508
-4.81494
4.81494
-1.79181
1.79181
-3.77466
3.77466
3.1709
-3.1709
-4.71803
4.71803
-0.459017
0.459017
-0.553315
4.30427
3.19764
3.19764
-2.41805
2.41805
-4.85204
4.85204
6.21819
-6.21819
9.19661
-9.19661
-3.12261
-3.42398
1.32195
-8.18902
-4.58558
-4.58558
-8.44041
8.44041
-2.81398
2.81245
2.93294
-2.93294
-1.75179
1.75179
-4.50981
-0.0451208
-4.50981
4.52955
0.025386
4.52955
-1.42281
0.101014
-1.42281
4.03752
-4.03752
1.16866
0.153133
1.16866
3.06423
-3.06423
-1.87709
3.75377
1.87387
-1.87159
6.17586
-1.87936
3.75364
-5.4691
5.4691
-2.95821
0.154027
-2.95821
2.91288
-0.108697
2.91288
-5.31815
5.31815
-4.06331
-0.221964
-4.06331
4.4389
-0.153631
4.4389
2.92983
-2.92983
-2.73894
0.0333291
-2.73894
2.65312
0.0524906
2.65312
0.353574
5.27286
-5.98
8.79245
-5.27286
0.0264612
5.20846
0.0379342
5.20846
-5.106
0.0382461
-5.106
5.01051
0.0572531
5.01051
4.77883
-0.0937423
4.77883
-4.79843
0.11335
-4.79843
-3.32965
-3.44809
-4.90709
0.0921571
-4.90709
-1.78712
-0.00469117
-1.78712
1.73202
0.0597857
1.73202
-3.54248
3.54248
-4.24453
0.469866
-4.24453
3.12631
0.0445951
3.12631
1.86869
1.88226
5.61965
-5.61965
2.44874
-4.6475
-0.0705301
-4.6475
-4.8181
-4.37851
4.8181
-0.100076
-0.773989
0.314973
-0.773989
3.15948
0.0381559
3.15948
2.57712
0.075996
-2.57712
0.159072
3.37015
-3.37015
1.7818
0.636245
1.7818
-5.57174
5.57174
4.94907
0.0614396
-4.94907
0.0970295
6.15712
0.0610725
6.15712
-6.19959
-0.0186043
-6.19959
3.34624
-6.77023
-3.43855
4.70557
0.109363
-4.70557
0.119993
2.89657
0.0363648
2.89657
-2.91666
2.91666
-2.98198
0.049044
-2.98198
-2.16763
0.415841
-2.16763
1.43318
0.318606
1.43318
-4.37908
-0.130735
-4.37908
-4.4302
0.185672
4.4302
0.0993434
0.905814
-0.905814
-1.54933
0.126527
-1.54933
-4.19421
-0.18486
4.19421
-0.156693
-3.92018
-0.117339
-3.92018
-3.02385
0.0418639
3.02385
0.0403827
3.11203
0.0474499
-3.11203
0.0478037
-1.87082
3.75308
-1.88013
3.754
-5.30212
-0.166984
-5.30212
5.46388
0.0052197
5.46388
3.38015
0.394513
-3.38015
0.421944
3.29902
-0.386146
3.29902
-5.29449
-0.0236582
-5.29449
5.25493
0.0632225
5.25493
3.72082
-0.421799
-3.72082
-0.342487
4.52641
-0.0875063
4.52641
2.98554
-0.05571
2.98554
-2.88843
-0.0414052
-2.88843
2.79062
-2.79062
2.75471
0.0359184
-2.75471
0.0157693
-11.1326
11.114
-0.0349223
-11.0977
5.17354
5.17354
4.20237
0.576458
4.20237
-5.00921
0.21078
-5.00921
3.31364
-6.75219
3.43824
-6.76789
3.44186
-11.6309
3.36188
-6.80997
5.08167
-5.08167
4.98742
0.0942479
-4.98742
0.0803297
-1.7899
0.00278356
-1.7899
-2.86769
-0.674786
-2.86769
4.18654
-0.644055
4.18654
-3.03332
3.03332
-3.08156
0.048237
3.08156
0.044754
4.5876
-0.0611942
-4.5876
-0.0598938
0.98505
0.183609
-0.98505
0.211061
3.57273
-0.202582
3.57273
-3.18293
-0.187222
-3.18293
-1.79119
0.00128816
1.79119
-0.00938826
-5.81737
0.245634
-5.81737
-11.1908
0.0930853
-11.1528
-6.1065
-6.1065
2.33391
11.1264
-2.87316
-0.0152645
2.87316
0.0234093
2.97738
0.0559423
-2.97738
0.0607207
-2.85318
0.062555
2.85318
0.063477
-2.55601
0.388378
-2.55601
-1.01264
1.01264
-1.2013
0.188658
1.2013
0.23188
1.1661
-0.260289
1.1661
1.65438
0.0776409
-1.65438
0.105051
-3.82212
-0.0980658
-3.82212
5.33465
0.129228
5.33465
-3.06188
-0.121052
3.06188
-0.0763317
-0.033314
11.1473
-5.14022
0.0342201
5.14022
-11.2084
11.2426
-3.23952
0.683518
3.23952
0.962844
5.29614
0.275602
-5.29614
0.286925
5.18592
0.0690076
-5.18592
0.104252
-2.34633
-0.521365
-2.34633
-4.86865
-0.433462
4.86865
-0.68212
-11.4752
-0.202672
11.6778
-11.4179
6.02005
0.137073
-6.02005
11.3797
-0.874905
-0.0309098
0.874905
0.137737
1.47502
-0.308914
1.47502
3.7334
-0.160673
-3.7334
-0.0887128
-5.29001
-0.004487
5.29001
0.0446463
-1.89663
-0.4497
1.89663
-0.421612
-4.26638
4.30453
1.90948
-3.29852
-3.47171
-7.67703
1.85156
1.90152
4.30031
-7.19385
-4.43703
-7.07385
7.27477
-6.98785
-9.30716
9.21342
7.4737
-7.59104
-5.78222
5.82697
6.48195
-6.44156
1.87832
1.87545
6.30472
-6.15069
-16.1893
16.0224
8.96781
-9.18978
12.5912
-12.6149
-13.3686
13.4376
-5.76117
5.7945
-6.6408
6.5994
-6.80937
6.73303
-3.26027
-3.50762
9.31948
-9.22732
11.6804
-11.7509
-8.2515
8.72136
3.38258
0.921949
3.43003
-1.88205
3.76037
-1.87159
3.78107
3.45348
-6.71375
3.2987
-6.77041
6.07691
5.60349
-5.97683
-1.7002
-5.86451
5.90088
-5.81935
5.88282
8.97505
-9.02017
-1.8864
3.76185
-1.8676
3.76911
-3.4245
-2.35772
3.3799
0.920406
5.69588
3.6236
-5.80524
-1.26862
-7.68259
7.52192
-7.97998
7.79276
-0.455974
5.82567
-5.3697
4.39606
-1.55328
7.37895
5.72149
5.93227
5.86889
-5.59329
1.11895
-6.48865
-6.39162
-2.60671
2.73324
2.64528
-2.49214
5.89166
1.58204
5.73496
-5.48644
-2.1046
-5.5845
3.81721
2.00976
3.86545
4.07362
2.40832
4.11549
3.02916
-3.03646
0.00730209
-3.05719
6.08634
0.725393
-5.41491
-4.49451
3.92106
2.38366
3.81237
-4.70318
-1.44751
-4.28124
-9.83704
-6.35231
-10.2705
10.114
5.90836
10.1192
-10.8325
10.8772
6.31328
2.65454
6.15964
-5.3763
-3.81348
-5.71879
10.912
-1.32487
-9.58708
-7.86325
-5.5053
7.80003
4.79118
7.98243
5.45514
8.08668
3.31204
7.59991
-8.10322
2.59791
-3.84945
-1.91172
-3.83369
3.74299
2.05151
3.79548
-4.13448
-2.50632
-4.14974
-4.19472
-2.61465
4.25043
2.34897
-4.29656
-3.68341
4.41762
2.31542
3.15689
-7.59393
3.65308
-7.1607
-6.53313
-2.69419
-6.4528
4.23231
2.58873
-6.82104
-2.48144
10.952
-5.34856
9.25185
-7.19256
-4.55837
-7.25246
-6.74884
-1.50266
-6.56316
-8.7529
8.23153
-9.107
8.46294
12.7228
-5.85748
-6.86532
-3.9698
-2.47176
3.922
-0.491962
-3.7107
3.71801
0.049662
3.83073
4.75268
4.26072
-3.88937
-1.92998
-3.82865
3.8294
2.05342
3.89195
6.76113
2.21392
6.78652
-6.40445
-2.61571
-6.53519
9.07589
-8.66005
2.9598
-2.95851
5.21306
2.5797
-5.01048
-2.67211
6.01827
-3.03522
-2.98304
-12.226
10.6013
1.62465
-4.847
-0.450938
0.00807868
-5.51635
-3.79081
5.403
0.529267
11.1306
7.33976
-5.51516
5.76079
6.16268
6.22412
-0.167501
5.84678
-5.16326
5.21343
-2.23482
-2.9786
5.25337
-5.43823
-1.28182
-5.22981
3.94798
0.296738
1.90242
-1.58744
-2.07559
-0.531122
-1.97054
1.61966
1.02561
1.80327
0.954745
1.7785
-2.9957
0.612632
2.38306
-2.04095
-1.87951
-3.53444
-0.941397
4.47584
5.47468
2.04724
-5.38596
-0.198542
2.74123
-2.68144
-0.711975
-2.82247
2.12361
-2.83558
-3.51669
-1.84562
5.36231
-3.36896
-0.45969
3.31302
0.552431
-3.81205
-2.05246
3.76301
0.352481
-3.13638
6.23098
-3.0946
-5.06635
2.52955
3.5568
4.53931
-4.78938
2.44183
2.34755
-1.23258
3.95042
-0.138056
3.56428
-5.80195
4.35444
5.28499
3.43637
-5.6795
1.39827
-4.40368
9.27153
-8.4165
-0.855028
4.63108
4.64045
7.38457
5.33823
-5.6857
13.0703
-2.48902
-5.92748
6.8927
-3.45633
5.50302
-8.95935
-10.8412
4.91377
-11.166
10.9223
0.243743
-2.58257
-8.24994
13.7486
-1.9985
-11.7501
8.12071
-6.25879
-4.18016
10.4389
-7.58366
7.99363
-3.69889
-4.29475
-8.468
-4.14686
8.47249
2.40466
-9.54143
12.1393
-1.94151
5.65254
0.507101
5.56504
5.26907
-5.67608
0.407011
2.31459
-6.01348
4.60169
-10.2778
-5.08808
9.81091
-4.72283
-7.78226
-7.11295
-0.669314
1.8284
10.3109
-7.28354
5.38483
1.89871
3.32833
0.563619
-3.36425
-0.469433
0.35324
4.47269
-4.82593
4.14872
4.22472
3.39467
1.07802
3.78892
2.11196
-3.81233
-0.337417
-4.08131
1.46666
-1.73234
-3.59685
5.06352
-4.02487
0.428018
-2.68377
-3.5373
6.22107
-4.59549
3.0706
3.16037
5.12403
-4.92434
1.38703
-2.42957
-2.49477
2.63784
-4.37017
1.934
3.12952
4.24941
0.566
5.02378
4.78713
-7.61251
0.451808
8.41073
-7.14212
1.93154
6.15514
-7.31636
0.203413
-6.24939
1.05218
-6.40074
-5.76885
5.36427
-6.86693
-3.59508
6.10166
0.684851
-6.20101
-0.362157
-5.90568
-2.84722
-6.35538
-3.13394
-5.97306
-8.81963
-1.58369
-7.23595
6.64785
-6.68908
-3.58142
7.3712
1.09175
-7.35476
7.32385
-7.39325
7.08433
0.0944616
3.62355
4.35518
1.88342
-2.39096
4.27438
-4.99223
7.20614
-8.45173
3.4595
3.94488
-6.56059
-4.50685
5.01439
4.0615
5.333
9.0438
-10.5674
1.52364
-10.9669
12.2129
-1.24599
-16.7512
5.78437
-7.70743
2.69867
0.261129
2.70146
0.665436
2.41158
-3.07701
-2.29308
-2.30247
-2.2482
-3.29872
5.54692
1.08725
-3.32517
2.23792
-3.42399
4.51125
-0.0884868
-3.23668
5.219
-2.80742
5.48013
-3.51248
1.96765
3.21085
5.48489
-2.27404
4.22263
-1.64293
1.7482
-4.02224
-1.55052
-2.99658
5.04809
-3.2245
3.65252
-0.222157
3.87467
-4.0116
0.976374
-0.616932
3.60779
3.76686
4.13244
-3.05442
2.87284
-4.51577
-1.1494
-3.94977
-0.820254
-0.325943
-3.70116
4.0271
6.0784
-6.40434
-5.30155
9.59847
-4.29691
7.72644
-5.43241
-2.29403
-4.27527
-4.38478
3.88689
1.95989
9.68633
0.196465
-5.62887
-4.9668
-4.00395
3.20022
2.01321
-2.08134
3.70599
2.07326
-0.170846
0.607271
1.196
1.92274
-1.31547
0.180384
1.74236
-1.40706
1.98739
0.753836
-2.06503
0.09449
-1.31167
3.43527
1.0714
-2.09701
0.781536
1.12625
-3.36108
4.66623
-2.34893
-2.3173
5.79249
1.17754
-3.52647
4.05227
-3.75553
2.28814
-3.22953
-1.23833
-4.99387
-3.41183
-2.43981
4.67773
-3.10711
5.15435
1.16105
-4.9558
6.11685
-3.52295
1.67733
-2.97127
3.72511
-0.988298
-1.98297
2.74049
2.62181
-2.82976
0.00729124
-0.0892666
2.32061
-2.40988
-0.514971
-2.55592
-4.56046
4.91294
-2.12224
4.56407
2.15214
-1.91325
6.47732
1.81408
-3.72733
-3.25227
-3.71196
-1.37978
3.15953
-1.72362
-3.99516
-6.01837
4.41696
-0.852687
-6.31841
8.4209
-2.1025
-3.93475
-0.419685
5.05077
-7.90178
1.8883
-3.30009
5.12081
4.98275
4.13007
-12.6537
0.903641
-6.74536
1.54166
-8.28702
6.18211
-3.31969
8.23346
-10.8423
7.26089
-9.75057
7.37843
-0.908585
5.78952
-5.38251
3.79757
-7.94443
-5.53976
6.69116
-4.03662
7.19826
-4.46082
11.6591
-6.40233
7.0368
4.62228
-1.50113
-5.75132
-6.78932
5.28818
0.247481
5.81252
4.95426
-2.8423
4.61684
2.25965
-4.68923
-2.11052
-6.56127
1.87205
-3.4009
-1.91704
3.78908
3.20699
3.77061
1.29431
-3.30118
6.9593
-7.62862
-2.23647
-3.53239
6.77501
-1.48682
4.1841
-7.71649
-2.21664
5.00264
-1.0264
-3.97625
0.854832
-4.44991
1.68659
-6.1365
5.18034
-5.5425
2.17356
-9.88099
-5.1812
-5.04346
-2.23186
-5.16138
-7.68655
5.45468
-1.90218
5.42167
-8.73478
7.70838
-3.47808
8.93276
-5.3224
-1.03298
5.74401
1.34032
10.2731
0.100887
-4.60773
-1.77237
3.88358
-2.11121
1.42785
-3.60027
0.283306
2.47132
3.32116
-6.41931
-0.141282
-4.74902
-3.90632
7.96781
5.69215
11.7706
1.20311
9.18231
-1.2145
10.3854
4.1185
4.35038
-3.04226
4.56589
0.984847
4.44435
-0.826012
2.79366
1.87544
1.87075
0.810687
2.29899
1.46787
3.27537
0.198352
-2.10411
4.66554
-8.6695
-0.963329
-8.09304
1.12038
5.75603
-4.63565
3.11808
-1.10488
1.00687
0.210946
-1.81813
1.60718
-2.76766
-1.98898
-0.246615
-1.57308
2.35461
1.8622
-2.108
-0.659659
0.303612
-3.71544
2.92592
-2.91863
-0.296817
5.82004
-2.72361
0.313734
-1.04628
-2.24219
-2.77331
2.67882
6.21167
0.265648
3.11707
5.17859
3.12613
0.283826
7.0673
-6.82356
-3.21047
-5.91992
0.262192
5.31296
2.39812
7.91282
7.0204
5.53357
-2.18291
-9.81153
6.53241
-1.96651
5.28642
-1.31017
-4.82633
4.89739
2.30875
-5.58224
0.0397424
-4.78659
-6.7531
-0.63158
8.33996
-9.6415
8.60853
5.7613
1.47464
-4.36432
-0.679146
4.17566
0.174721
10.5601
-1.14403
-6.91241
8.05645
-4.612
3.64867
0.903546
2.80245
2.51073
1.40585
-5.50656
-10.1422
-1.76674
-1.59433
-4.08404
0.391798
-2.25399
6.27571
-2.62704
3.98168
5.4294
6.43627
-2.21038
-4.19396
6.50729
-2.52562
3.91066
)
;

boundaryField
{
    wall-4
    {
        type            calculated;
        value           uniform 0;
    }
    velocity-inlet-5
    {
        type            calculated;
        value           uniform -3.75095;
    }
    velocity-inlet-6
    {
        type            calculated;
        value           uniform -5.62643;
    }
    pressure-outlet-7
    {
        type            calculated;
        value           nonuniform List<scalar> 8(6.074 5.90753 6.54659 6.86707 6.77774 6.78479 6.75188 6.80374);
    }
    wall-8
    {
        type            calculated;
        value           uniform 0;
    }
    frontAndBackPlanes
    {
        type            empty;
    }
}


// ************************************************************************* //
