/*--------------------------------*- C++ -*----------------------------------*\
| =========                 |                                                 |
| \\      /  F ield         | OpenFOAM: The Open Source CFD Toolbox           |
|  \\    /   O peration     | Version:  2412                                  |
|   \\  /    A nd           | Website:  www.openfoam.com                      |
|    \\/     M anipulation  |                                                 |
\*---------------------------------------------------------------------------*/
FoamFile
{
    version     2.0;
    format      ascii;
    arch        "LSB;label=32;scalar=64";
    class       volVectorField;
    location    "18";
    object      U;
}
// * * * * * * * * * * * * * * * * * * * * * * * * * * * * * * * * * * * * * //

dimensions      [0 1 -1 0 0 0 0];

internalField   nonuniform List<vector> 
918
(
(0.985148 -0.000523587 0)
(0.00500249 2.96626 0)
(-0.0101569 1.60811 0)
(0.979702 0.00214138 0)
(-0.00383291 1.57325 4.57493e-21)
(-0.00703305 2.94878 -1.92823e-18)
(0.854126 1.20543 7.13894e-19)
(0.449992 0.20711 -9.54193e-21)
(0.999909 -0.00031329 0)
(0.0237984 0.821992 0)
(-0.0140369 1.23873 0)
(0.787918 -0.00860351 0)
(0.0111304 2.93031 0)
(0.00183878 2.79469 0)
(-0.0181593 3.1691 1.0666e-18)
(-0.00530857 1.48174 -1.0207e-20)
(0.568378 0.0967433 6.02168e-19)
(0.187997 1.16817 6.19476e-19)
(0.963079 0.00505837 0)
(-0.00327534 1.36846 0)
(0.148978 0.25911 -5.06218e-19)
(1.00196 -0.00501125 0)
(1.00026 -0.00972374 0)
(0.9758 -0.00647236 0)
(0.703572 -0.032185 0)
(0.0181079 2.63049 0)
(-0.0151223 2.91018 6.7141e-19)
(-0.0218968 1.62998 0)
(-0.0231048 1.74882 0)
(-0.0215631 1.6255 0)
(-0.00509602 1.83009 0)
(-0.00202188 1.59816 -3.61943e-21)
(-0.00467989 1.48662 0)
(-0.020616 2.98759 -6.76738e-23)
(-0.0167029 3.00531 1.4988e-18)
(0.00210693 3.00021 0)
(0.867511 -0.00851786 0)
(0.390924 0.927127 -1.46608e-20)
(0.842288 1.21804 -9.90245e-19)
(0.991889 1.06055 9.36539e-19)
(0.708118 1.31144 -1.65776e-19)
(0.702011 1.29389 9.28303e-19)
(0.476811 0.28089 9.30997e-21)
(0.46746 0.186159 0)
(1.1737 0.568015 0)
(0.450012 0.304302 4.37738e-20)
(0.410227 0.206366 -4.5423e-20)
(0.919642 -0.00751177 0)
(1.00035 8.51075e-05 0)
(0.999915 0.000316559 0)
(1.00342 -0.0077725 0)
(1.00095 -0.00106666 0)
(1.00018 -1.2933e-05 0)
(0.0400531 1.6867 -3.02498e-19)
(0.0359621 0.920013 0)
(0.0664437 0.851605 0)
(-0.0174338 0.914501 0)
(-0.0167078 0.851014 0)
(0.0143413 1.57224 0)
(-0.0236283 1.36217 0)
(-0.0318216 1.18175 0)
(-0.0124953 1.4303 0)
(-0.00780811 1.27619 0)
(0.865228 -0.000626375 0)
(0.878304 0.00968824 0)
(0.79981 -0.00356593 0)
(0.871403 0.0150066 0)
(0.7723 -0.00955722 0)
(0.0147028 3.00039 7.06992e-19)
(0.0115292 3.00792 0)
(0.00613304 3.00284 0)
(0.0135587 2.99734 7.90051e-24)
(0.00798857 2.95845 -1.05077e-18)
(0.0144945 2.98203 0)
(0.0107922 2.90363 0)
(0.0251528 2.93008 1.43707e-24)
(0.00408323 2.82521 0)
(0.0321029 2.91532 0)
(-0.00663607 2.74445 0)
(0.310603 3.56842 0)
(-0.132568 3.65076 0)
(0.140447 3.2597 9.92633e-19)
(-0.0109062 2.99207 0)
(-0.0155127 1.80747 0)
(-0.00201877 1.62798 1.00691e-20)
(-0.00394618 1.49098 -1.69211e-20)
(0.620615 0.155751 -2.07432e-19)
(0.568805 0.05324 -2.0355e-19)
(0.596334 0.193089 -6.25367e-19)
(0.542699 0.123162 -4.15244e-19)
(0.243866 0.924623 0)
(0.279979 1.32348 -6.3496e-19)
(0.388336 1.28629 1.04457e-18)
(0.987722 0.00847194 0)
(0.943103 0.00604058 0)
(1.0003 0.000544862 0)
(1.00289 0.00927185 0)
(1.00303 0.00837758 -1.20381e-18)
(0.992 0.00975739 9.08929e-19)
(-0.0166613 1.51618 0)
(-0.00478029 1.35411 0)
(-0.0308439 1.63433 0)
(-0.0234181 1.55388 0)
(-0.00409595 1.40709 0)
(0.222307 0.276522 1.56037e-19)
(0.271271 0.255073 0)
(0.993594 -0.008244 0)
(0.95443 -0.00656412 0)
(0.843337 0.0211413 0)
(0.809977 0.0338322 0)
(0.751701 -0.0228474 0)
(1.00517 -0.0054816 0)
(0.754511 0.0508958 0)
(0.617842 -0.0142078 8.13038e-19)
(-0.0351319 2.8669 3.57514e-19)
(0.0434354 2.90817 0)
(0.0572303 2.88269 0)
(-0.00521005 2.69617 0)
(-0.0130303 2.9852 6.19191e-19)
(-0.0183332 2.89549 0)
(-0.0154162 2.98811 -1.95456e-18)
(-0.0133953 2.92522 6.74548e-19)
(-0.0198965 1.81286 0)
(-0.0154641 1.80901 0)
(-0.00249816 1.62553 -1.8867e-22)
(-0.00187341 1.59641 0)
(-0.00607961 1.48531 0)
(0.932072 -0.00547265 0)
(0.852134 -0.00831332 0)
(0.861786 0.00910503 0)
(0.947041 -0.00666399 0)
(0.884513 -0.00735717 0)
(0.50481 1.1222 8.17169e-21)
(0.55681 1.17775 0)
(0.349983 0.864591 6.71381e-21)
(0.293268 0.727473 0)
(0.952092 1.09496 -2.6953e-19)
(1.06551 0.89632 5.49692e-19)
(0.401638 1.39418 0)
(0.556721 1.37058 0)
(0.563261 1.32083 0)
(0.091824 0.13433 -1.35933e-19)
(0.51132 0.263918 0)
(0.496232 0.165904 1.18958e-19)
(1.03421 0.947053 0)
(1.0996 0.789115 0)
(1.126 0.732466 -4.73836e-19)
(1.15305 0.626345 0)
(1.20461 0.40742 5.90735e-20)
(0.956768 -0.00830001 0)
(0.961974 -0.00969946 0)
(0.901502 -0.00799062 0)
(0.984239 -0.00908672 0)
(0.974707 -0.00947639 0)
(0.936735 -0.0062046 0)
(1.00012 0.00226717 0)
(1.00091 0.00145226 0)
(0.999892 0.000857414 0)
(-0.0266895 1.93585 1.84151e-19)
(0.0860059 1.64037 0)
(0.0103866 1.9096 8.49603e-20)
(0.0108549 1.6618 -1.31298e-19)
(0.112423 1.1728 -5.13567e-19)
(0.0737458 1.01948 0)
(0.129395 0.999208 0)
(-0.0571944 1.00049 0)
(-0.0487218 0.957962 0)
(0.0409995 1.73748 -7.27747e-22)
(0.0101294 1.57356 0)
(0.0110762 1.7262 -1.95246e-20)
(-0.0070644 1.56515 6.13014e-21)
(-0.0574803 1.14053 0)
(-0.0449224 1.26954 0)
(-0.0443855 1.08399 0)
(-0.0101788 1.47587 0)
(-0.00559629 1.29877 0)
(0.948161 0.0148731 0)
(0.887214 0.00120153 0)
(0.928896 0.00937157 0)
(0.853233 -0.000923005 0)
(0.810002 0.00261438 0)
(0.902286 0.00828022 0)
(0.890828 0.00459893 0)
(0.7994 -0.00270278 0)
(0.00582727 3.06473 -6.25993e-21)
(0.0163245 3.05803 0)
(0.0146478 2.96916 0)
(0.00849259 2.87638 0)
(0.927679 3.98748 0)
(1.24305 3.31583 1.00977e-18)
(0.0715133 3.08444 0)
(-0.0262956 2.91211 0)
(-0.0190746 1.79867 0)
(-0.0197512 1.80275 0)
(-0.0173802 1.79986 0)
(-0.00939555 1.81814 4.41513e-21)
(-0.0143531 1.81586 0)
(-0.0122247 1.81405 0)
(-0.00426215 1.50481 -6.00966e-22)
(2.36788e-05 1.66514 1.64629e-20)
(0.000568349 1.6446 1.72997e-20)
(-0.00319261 1.48977 0)
(0.643363 0.117583 3.06005e-19)
(0.58006 0.0250149 -2.97898e-19)
(0.243883 1.51628 0)
(0.278061 0.683106 -2.23758e-19)
(0.169058 1.64228 -7.6173e-19)
(0.186542 1.17467 7.62969e-19)
(0.904328 0.00796896 0)
(0.96827 0.0109854 0)
(0.974999 0.0104818 0)
(0.925308 0.00683172 0)
(-0.012549 1.49803 0)
(-0.0141924 1.5052 0)
(-0.00571295 1.32265 0)
(0.407878 0.313344 4.04276e-19)
(0.345391 0.294559 -4.9269e-19)
(0.354383 0.228936 0)
(1.12611 0.0832376 -9.79479e-22)
(1.11155 0.03789 0)
(1.04049 0.0362593 0)
(0.948931 0.00631202 0)
(0.663871 0.0903609 0)
(0.694518 0.0641627 -1.30897e-18)
(0.594973 0.0100516 4.99733e-19)
(0.00989417 2.98211 4.45039e-19)
(-0.0325457 2.86759 4.69638e-20)
(0.00383035 3.05022 -1.3494e-20)
(0.0199523 3.0435 4.84759e-19)
(-0.0150049 2.99655 2.23983e-20)
(-0.0130013 2.94943 -9.05873e-23)
(-0.0173003 3.01199 -4.23379e-19)
(0.0148312 3.02396 3.06333e-19)
(0.00732043 3.03682 -4.79703e-19)
(0.925931 0.00564433 0)
(0.930061 -0.000434585 0)
(0.843357 -0.00493723 0)
(0.95712 0.0126368 0)
(0.943396 0.0132309 0)
(0.882669 0.0081635 0)
(0.91537 0.0125628 0)
(0.925983 0.0145537 0)
(0.834849 0.0077247 0)
(0.713432 1.40774 3.05974e-19)
(0.749298 1.51958 0)
(0.220845 0.370229 2.89272e-20)
(0.171905 0.57314 2.33765e-19)
(0.259732 0.684931 -1.31946e-19)
(0.223466 0.57127 2.45014e-19)
(0.283867 0.675798 7.73474e-19)
(0.110243 0.170966 2.20312e-19)
(0.569635 0.221528 -4.29252e-19)
(0.539747 0.245379 1.10928e-19)
(0.520965 0.149275 2.24803e-19)
(1.19303 0.46385 2.7386e-19)
(1.20875 0.257399 2.86903e-19)
(0.00367442 1.84105 4.91288e-20)
(-0.00297617 1.60046 0)
(0.992055 0.0269672 0)
(0.960386 0.0175466 0)
(0.911031 -0.00106273 0)
(0.0111198 3.07486 0)
(0.0201238 2.94415 8.38206e-19)
(0.01654 2.95656 0)
(0.00600302 2.85072 -8.31595e-19)
(0.00605124 3.09161 1.994e-19)
(0.00721924 3.08212 0)
(0.783067 1.82535 -2.3319e-19)
(1.24985 2.51088 6.38644e-19)
(0.765888 1.96741 -1.47516e-18)
(0.0213281 2.98531 -3.3131e-19)
(0.0372994 3.00845 0)
(-0.0320296 2.88314 0)
(0.00298424 1.69085 -1.84904e-21)
(-0.000830808 1.68591 -1.88698e-21)
(-0.00165609 1.53429 -6.0541e-21)
(0.257907 1.31679 7.10038e-19)
(0.24042 0.447613 -4.88179e-19)
(0.0110168 1.91749 5.00309e-19)
(0.111182 1.82958 -6.43046e-19)
(0.142911 1.43517 1.05714e-19)
(0.00396345 3.11894 -1.17833e-18)
(0.0122302 3.1192 1.29138e-18)
(-0.00859836 2.98117 5.40011e-19)
(-0.00365703 2.97797 -4.7918e-19)
(-0.0214576 2.88184 -5.49991e-19)
(0.0086658 3.10002 -1.46488e-18)
(0.00223339 3.10472 1.46027e-18)
(0.22196 0.593543 0)
(0.154087 0.574511 -4.45106e-19)
(0.128934 0.191833 1.96712e-19)
(0.31912 0.805077 6.61975e-19)
(0.170357 0.213941 -1.01488e-18)
(1.20717 0.170332 -4.65194e-20)
(1.20865 0.30932 0)
(1.19479 0.118473 1.10666e-19)
(0.0445676 1.75209 -3.43875e-23)
(0.0394692 1.77444 0)
(0.0290434 1.57946 0)
(0.309926 1.19705 -2.5913e-19)
(0.347447 1.0146 -5.39776e-19)
(0.193811 0.311804 9.28743e-19)
(1.00583 -0.0110872 0)
(1.00764 -0.00770142 2.20313e-19)
(-0.0209661 1.80125 0)
(-0.0308548 1.80917 0)
(1.00217 0.00347697 1.68606e-21)
(1.00387 0.00949691 4.52306e-19)
(-0.00944135 1.82248 -5.87909e-21)
(-0.00734845 1.82156 0)
(0.0399181 3.18497 1.35347e-19)
(0.400524 3.505 0)
(1.10872 0.64426 5.16252e-20)
(1.01227 0.0125155 -2.2195e-21)
(1.0214 -0.0105251 0)
(1.00169 7.42843e-05 -3.93052e-23)
(0.0511495 1.09767 0)
(0.0942527 2.68894 0)
(-0.128272 1.59291 0)
(-0.0888587 2.07814 6.84964e-20)
(-0.0644158 1.9319 4.90899e-20)
(1.0048 0.00954239 2.34611e-21)
(1.04581 0.0157314 0)
(1.07038 0.0286186 0)
(-0.0217135 1.80537 0)
(-0.0101249 1.83996 0)
(-0.0255869 1.78897 0)
(0.32198 1.42092 -4.37368e-19)
(1.01115 -0.00958333 0)
(1.00946 -0.0155385 0)
(1.0023 0.000436642 2.78019e-19)
(1.00553 -0.00492646 -3.3169e-19)
(1.00121 -0.00106859 0)
(-0.0241984 1.80106 0)
(-0.022661 1.79789 0)
(-0.0221572 1.80062 0)
(-0.0272447 1.7888 0)
(-0.027165 1.78874 0)
(-0.0288085 1.79031 0)
(1.02801 -0.015468 0)
(1.02066 0.0189348 -9.87013e-22)
(0.789312 1.26698 5.03938e-19)
(1.00301 0.000234565 -2.81492e-19)
(1.00318 0.00572798 3.36414e-19)
(1.00128 0.00215403 0)
(1.01276 0.0105785 2.74122e-19)
(1.00796 0.00823447 -3.39309e-19)
(1.00873 0.0142408 0)
(-0.01021 1.8397 0)
(-0.00977512 1.83159 9.31559e-21)
(-0.00741279 1.83048 -6.54445e-21)
(1.18504 0.250659 -1.15962e-20)
(1.12434 0.0867657 0)
(0.0548589 3.07821 -5.5381e-19)
(0.0688919 2.85063 -4.40356e-20)
(0.148424 3.19844 8.54264e-19)
(0.142102 3.22727 -1.67762e-20)
(0.14061 3.24496 0)
(0.0218365 3.13897 1.22762e-19)
(0.0814051 3.16256 5.41113e-19)
(0.0738683 3.19038 -2.36497e-19)
(0.0261792 3.12825 0)
(0.677745 0.327329 0)
(0.624689 0.377988 0)
(1.08326 0.672657 -2.08393e-19)
(1.07922 0.811158 -7.38138e-20)
(1.14392 0.56166 0)
(1.17525 0.509404 0)
(1.01559 0.0131512 -5.07008e-19)
(1.01376 0.0139315 -1.42191e-21)
(1.02499 -0.00960974 0)
(1.02208 -0.0134068 0)
(1.00657 0.00295064 0)
(1.01034 0.00382206 0)
(1.00477 0.00175399 0)
(1.00953 0.00578049 0)
(1.00809 0.00569741 0)
(1.00506 0.00503348 0)
(0.035468 1.09551 0)
(-0.0415039 0.995689 0)
(0.168739 1.13063 0)
(0.151411 1.17553 0)
(0.0926238 2.69376 0)
(0.162837 2.7059 -2.158e-19)
(-0.0280893 2.74208 0)
(-0.0926729 2.67654 3.61747e-21)
(-0.137486 2.41614 -2.23787e-21)
(-0.103951 1.6119 0)
(-0.0782785 1.64491 0)
(-0.159552 1.5404 0)
(-0.141432 1.44835 0)
(-0.272759 1.96977 -2.07622e-21)
(-0.0836473 1.97352 3.92516e-20)
(-0.0836201 2.07063 4.60661e-20)
(-0.0603419 2.02403 0)
(-0.061413 1.93064 -1.00534e-19)
(-0.0461419 1.90893 -3.55591e-20)
(-0.245737 1.93491 -1.72881e-21)
(-0.13619 1.93428 -5.15892e-20)
(-0.138675 2.00998 -6.05047e-20)
(1.01331 0.0194191 5.04132e-19)
(1.01239 0.00378568 4.59937e-21)
(1.0066 0.0205933 -5.23124e-19)
(0.992592 0.0138939 6.59271e-19)
(1.0458 0.0179212 0)
(1.03423 0.00310529 0)
(1.06694 0.038362 0)
(1.05315 0.0233725 0)
(1.054 0.0142827 0)
(1.10769 0.0788579 0)
(1.08161 0.0478086 0)
(1.08714 0.0381421 0)
(-0.0130484 1.82465 -1.21931e-21)
(-0.0214523 1.8149 0)
(-0.0161728 1.81687 0)
(-0.013449 1.8504 1.25925e-20)
(-0.0126967 1.85198 -4.77563e-22)
(-0.0282264 1.80985 9.40148e-21)
(-0.0282873 1.80474 -9.50431e-21)
(-0.0299967 1.79795 0)
(-0.028843 1.79999 0)
(-0.0289327 1.79973 0)
(-0.0277753 1.78426 0)
(-0.0201188 1.76434 0)
(0.398802 1.46065 8.11583e-19)
(0.396019 1.46714 3.15129e-19)
(0.623163 2.39833 -1.61469e-19)
(0.4096 2.52874 4.70735e-19)
(0.39047 2.05477 -1.21279e-20)
(1.02116 -0.00796971 0)
(1.01521 -0.00969833 0)
(1.01552 -0.0154752 0)
(1.00735 -0.000822422 0)
(1.0046 -0.00147462 0)
(1.00743 -0.00468111 0)
(1.00947 -0.00398484 0)
(1.01391 -0.00430841 0)
(1.02264 0.0180829 4.9498e-19)
(1.01681 0.0181823 -6.22259e-19)
(1.02259 0.021378 -4.93515e-19)
(1.01805 0.0199848 6.18176e-19)
(0.763276 1.31153 0)
(0.692016 1.36937 5.93745e-19)
(0.860212 1.20361 3.39341e-19)
(0.902508 1.16358 -4.51136e-19)
(1.14584 2.61113 -4.79434e-19)
(0.834611 0.112094 3.16127e-19)
(1.1243 0.0974551 0)
(1.17026 0.173805 1.44116e-20)
(1.15974 0.156154 7.20514e-22)
(0.975689 0.123166 0)
(0.152108 2.96882 1.50216e-19)
(0.127843 2.87484 -7.05485e-19)
(0.0410009 2.35102 5.11472e-19)
(0.107108 0.113823 -2.14906e-19)
(0.344568 3.43278 -4.29574e-19)
(0.199566 3.32385 0)
(0.240646 3.36955 5.59442e-19)
(0.25706 3.04291 -7.99642e-19)
(0.3524 3.20233 0)
(0.00838927 3.12041 2.82619e-20)
(0.0189662 3.12956 -3.56912e-19)
(0.0170255 3.12539 5.25342e-19)
(0.038705 3.1398 0)
(0.0371463 3.1521 0)
(1.2096 2.61419 0)
(0.503103 0.847593 -2.49782e-19)
(1.01457 0.992181 -1.83362e-19)
(0.955165 1.04757 0)
(0.795756 0.951567 4.08305e-20)
(1.03445 0.86506 3.09459e-20)
(0.404973 0.478603 -5.75889e-19)
(0.709549 0.335476 -2.35476e-20)
(0.694513 0.28474 2.3897e-19)
(0.628572 0.415954 1.90614e-20)
(0.569304 0.40699 -7.83518e-19)
(0.69108 0.352899 0)
(0.72266 0.417975 3.9993e-19)
(0.719825 0.41308 0)
(0.66692 0.384791 0)
(0.649939 0.324811 0)
(0.744991 0.5923 1.56294e-19)
(1.18434 0.268212 -5.47227e-20)
(1.18127 0.403041 0)
(1.19078 0.357478 0)
(0.760578 0.217967 3.59834e-19)
(0.800755 0.510599 -2.01858e-19)
(0.725845 0.492754 -3.32059e-19)
(0.911074 0.406213 -3.20541e-19)
(1.01999 0.0145841 3.34641e-19)
(1.01736 0.0141332 -3.42412e-19)
(1.01385 0.0162432 0)
(1.02916 -0.0150779 0)
(1.02707 -0.0131061 -3.10764e-19)
(1.02241 -0.0189941 3.0761e-19)
(1.03002 0.00654694 0)
(1.02599 0.0166717 0)
(1.01126 0.00460368 0)
(1.01461 0.00866801 0)
(1.01557 0.00416148 0)
(1.01348 0.00197051 0)
(-0.141607 1.11125 0)
(-0.151783 1.1226 0)
(0.244663 1.08814 4.98619e-19)
(0.300546 1.41051 2.57466e-19)
(0.227008 1.28384 5.74207e-19)
(0.22237 1.31712 -3.0975e-19)
(0.354175 1.24161 0)
(0.339294 1.77005 5.11656e-19)
(0.223731 1.74431 0)
(0.417729 2.04723 1.76207e-20)
(0.384654 2.40458 2.24701e-19)
(0.492391 1.44097 -4.45629e-19)
(0.378414 1.3844 1.98476e-19)
(0.403229 1.24222 1.61733e-19)
(0.408549 1.35145 3.13501e-19)
(0.391089 1.68501 -2.80962e-19)
(0.412972 1.65665 -2.00583e-19)
(-0.350389 2.30798 1.19883e-19)
(-0.167667 2.53606 0)
(-0.184113 2.51733 -2.83059e-19)
(-0.264985 2.46283 0)
(-0.120032 2.65733 -5.17271e-21)
(-0.12543 2.5898 0)
(-0.254547 1.72761 5.13046e-20)
(-0.338019 1.81234 0)
(-0.280038 1.59449 0)
(-0.246816 1.61472 -5.78734e-20)
(-0.132688 2.17998 -6.73516e-20)
(-0.126814 2.37856 -5.39491e-21)
(-0.0830359 2.24155 2.71523e-23)
(-0.14391 1.85748 1.81599e-20)
(-0.182449 1.8498 -2.84481e-21)
(-0.0623477 1.68231 0)
(-0.0390301 1.70022 0)
(-0.417105 1.91413 -1.93176e-19)
(-0.349755 1.62674 -2.07782e-19)
(-0.353465 1.79664 2.53566e-19)
(-0.394162 1.84282 0)
(-0.0268993 1.83627 -4.56532e-20)
(-0.0275257 1.85035 1.9655e-20)
(-0.0337695 1.85543 -6.36676e-21)
(-0.116646 1.83472 -2.19956e-20)
(-0.065715 1.88371 -1.09667e-20)
(-0.0770055 1.89828 6.46636e-20)
(1.02184 0.0178935 -3.27925e-19)
(1.02124 0.012684 3.31488e-19)
(1.01657 0.00984628 0)
(1.00109 0.0453729 4.76829e-19)
(0.993321 0.0328023 -5.49507e-19)
(0.967136 0.0222934 6.34663e-19)
(0.999612 0.0794367 -6.25195e-20)
(1.02933 -0.0127383 0)
(1.03461 0.0041032 2.7954e-19)
(1.02694 -0.0122976 -2.81064e-19)
(1.04802 0.0409255 -1.57817e-20)
(1.05019 0.0293728 1.39675e-19)
(1.04564 0.0486239 0)
(1.03735 0.0419185 -5.17118e-20)
(1.03206 0.0276318 0)
(1.02766 0.019192 0)
(1.03523 0.00905592 0)
(1.03132 0.0127166 0)
(1.03957 0.0258481 1.06689e-19)
(1.04213 0.0190058 -2.39414e-19)
(1.04055 0.0309865 -1.09489e-19)
(1.03856 0.0302079 -1.25395e-19)
(1.04333 0.0558038 2.30631e-19)
(1.07061 0.0509813 0)
(1.06964 0.0947516 0)
(-0.0248134 1.83604 -1.52316e-20)
(-0.0226563 1.82006 -1.26368e-21)
(-0.0237996 1.82182 0)
(-0.0162236 1.83521 1.53366e-20)
(-0.0150226 1.82748 2.44862e-21)
(-0.0143722 1.83264 -2.47323e-21)
(-0.0417407 1.90024 2.91848e-20)
(-0.0394355 1.86797 -2.40275e-21)
(-0.0526793 1.8745 1.34631e-20)
(-0.0228414 1.87176 -1.55964e-20)
(-0.0274469 1.87654 -2.80931e-21)
(-0.0327826 1.80665 2.74538e-22)
(-0.0332655 1.81391 1.87756e-20)
(0.42854 1.40932 -3.91359e-19)
(0.409407 1.41365 -3.45964e-19)
(0.650547 1.4053 -5.72759e-19)
(0.514699 1.46848 -3.13049e-19)
(0.554412 1.44277 0)
(0.600245 2.37812 1.35235e-19)
(0.663761 2.36182 2.3033e-19)
(0.438269 2.47566 9.68759e-20)
(0.444052 2.55274 -1.62243e-19)
(0.549609 2.50901 3.24079e-19)
(0.533749 2.42961 0)
(0.530312 2.44914 -3.88694e-19)
(0.26568 2.60998 6.47335e-19)
(0.374923 2.54041 -6.22872e-20)
(0.282301 2.64715 -1.00912e-18)
(0.91412 2.37725 2.13442e-19)
(0.813676 2.35579 0)
(1.0108 3.35544e-05 1.11665e-20)
(1.01569 -0.00512362 -9.11656e-21)
(1.01644 -0.00394015 -1.61441e-19)
(1.01517 -0.000442991 1.66024e-19)
(1.01266 0.00100946 0)
(0.631625 1.254 0)
(0.635777 1.15949 0)
(0.732717 1.09054 0)
(0.626209 1.12567 0)
(1.17605 2.62789 5.83573e-20)
(1.06035 2.35968 0)
(0.862147 2.24091 -1.42158e-21)
(0.823038 2.49683 0)
(0.921548 2.58083 4.03399e-21)
(0.964176 2.52826 0)
(0.840077 0.141856 0)
(0.812845 0.14599 9.02799e-20)
(0.92387 0.127975 4.68355e-19)
(0.863378 0.119829 -1.86552e-19)
(0.856527 0.0709482 -5.63293e-19)
(1.02665 0.208479 -3.01049e-19)
(0.954419 0.278882 -1.55801e-20)
(0.886702 0.275672 4.29601e-19)
(0.962417 0.1991 3.25195e-19)
(0.932848 0.15885 -5.93554e-19)
(0.909619 0.174266 7.64174e-20)
(0.929649 0.236095 -1.52507e-19)
(0.908301 0.192037 0)
(0.968231 0.1599 -2.85441e-19)
(1.00259 0.159545 0)
(1.00225 0.186666 0)
(1.06488 0.105219 1.00366e-19)
(1.02507 0.149168 -1.36506e-20)
(1.0202 0.212121 -1.5471e-19)
(1.05446 0.182924 0)
(1.01846 0.025677 2.52532e-19)
(1.03313 0.0443095 3.02665e-19)
(1.02893 0.0309552 -2.50781e-19)
(1.02739 0.0481721 -2.03255e-19)
(1.0088 0.0506383 -3.35541e-19)
(0.976378 0.124128 0)
(0.98275 0.0758857 0)
(0.97108 0.0463043 -2.28423e-19)
(0.935386 0.0574083 9.53895e-20)
(1.01042 0.0799186 2.87356e-19)
(1.02901 0.106521 -3.02083e-19)
(1.0329 0.127973 2.7353e-19)
(0.994744 0.123558 0)
(1.03935 0.0950117 0)
(1.02616 0.0792573 -1.25404e-19)
(1.02418 0.0798841 -2.31022e-19)
(0.573763 1.07363 -7.10383e-20)
(0.613896 1.42619 1.70273e-19)
(1.1505 2.7598 7.2446e-20)
(1.21757 3.09687 -6.58089e-20)
(1.24089 2.73018 5.04877e-19)
(1.27324 2.71461 -3.14537e-19)
(1.1987 2.3463 -8.29871e-21)
(1.20342 2.999 1.71802e-19)
(1.22212 2.96283 -1.77505e-19)
(1.20966 3.25056 -2.60135e-19)
(1.3731 2.97949 3.60247e-19)
(1.36587 2.8965 0)
(0.503485 0.853182 -1.52088e-20)
(0.163629 1.29415 3.82009e-19)
(0.523223 0.546053 3.79533e-19)
(0.355428 0.316745 4.14202e-19)
(0.570333 0.436838 4.37879e-19)
(0.556233 0.502706 -6.98908e-19)
(0.550516 0.525157 5.7307e-19)
(0.522781 0.474741 -2.28063e-19)
(0.487013 0.415997 5.24628e-19)
(0.765137 0.26948 6.15616e-19)
(0.73499 0.29419 0)
(0.725309 0.25041 1.04987e-20)
(0.720947 0.509509 2.06936e-19)
(0.701364 0.472758 -7.6028e-19)
(0.625863 0.501477 2.00407e-20)
(0.644929 0.470966 0)
(0.627252 0.737709 1.68457e-19)
(0.776611 0.757272 8.23474e-20)
(0.710967 0.844698 -1.04338e-19)
(0.824096 0.790488 -2.97719e-20)
(0.863785 0.832594 9.05768e-21)
(0.872224 0.835058 -9.27504e-21)
(0.786916 0.624704 -2.64961e-19)
(0.86802 0.686324 2.76889e-20)
(0.932371 0.697753 0)
(0.920264 0.671023 -3.30693e-20)
(0.98091 0.314169 7.54019e-20)
(1.08481 0.276447 3.22861e-20)
(1.01227 0.248305 1.22975e-19)
(0.966231 0.346229 -1.67941e-19)
(1.00865 0.403436 0)
(1.05108 0.397023 0)
(0.884681 0.34398 3.98251e-21)
(0.819171 0.285246 0)
(0.834909 0.278914 2.1698e-19)
(0.878839 0.284035 -7.65833e-21)
(0.903643 0.406507 8.78325e-19)
(0.856265 0.459652 2.25069e-19)
(0.867703 0.427576 -2.75448e-19)
(0.808551 0.415006 -2.94511e-19)
(0.795649 0.409525 1.97275e-19)
(0.777378 0.401195 -1.9397e-19)
(1.02651 -0.00867152 2.676e-19)
(1.01993 -0.00355335 0)
(1.01816 -0.00196924 1.76345e-19)
(1.02348 -0.00418689 -2.65069e-21)
(1.02344 0.000952522 1.91979e-19)
(1.02112 0.0107378 -4.01941e-19)
(1.02272 0.0105954 0)
(1.02207 0.011026 -8.49494e-20)
(1.01675 0.0064751 2.12313e-19)
(1.01662 0.0098922 -1.07314e-19)
(1.01762 0.00897024 7.83814e-20)
(-0.208841 1.40209 0)
(-0.309962 1.54036 0)
(-0.204588 1.24741 0)
(-0.16133 1.27434 0)
(-0.21957 1.41926 -1.08787e-18)
(-0.0110108 1.22435 3.71309e-19)
(0.0656641 1.7272 3.04548e-19)
(0.0688844 1.3724 -2.3199e-19)
(-0.366087 1.61434 3.29596e-19)
(-0.368114 1.59749 -2.53763e-19)
(-0.262996 1.3577 1.21538e-19)
(-0.267697 1.37759 -5.84775e-19)
(-0.274882 1.39688 5.47599e-20)
(-0.325607 1.50364 -3.78967e-20)
(-0.144874 2.55753 3.06522e-19)
(-0.0136714 2.62588 0)
(0.102597 2.3251 -5.08112e-20)
(0.03128 1.88214 -1.93132e-19)
(0.390249 2.12931 3.79199e-20)
(0.268244 2.51304 0)
(0.275659 2.45431 -2.17689e-19)
(0.404775 2.41952 1.43148e-19)
(0.323719 2.16173 1.63391e-19)
(0.212842 2.33598 5.2881e-21)
(0.115791 2.53226 0)
(-0.364162 2.08113 1.75703e-19)
(-0.274332 2.12907 -2.16141e-20)
(-0.322382 2.05277 0)
(-0.288132 2.28204 -1.08931e-21)
(-0.364884 2.26622 -8.05001e-20)
(-0.164755 1.70915 -2.67079e-23)
(-0.112678 1.726 1.0895e-20)
(-0.110555 1.75641 -4.57605e-21)
(-0.171237 1.75832 -2.47353e-21)
(-0.222732 1.74306 0)
(-0.0903249 1.75848 0)
(-0.0296747 1.76384 1.41464e-20)
(-0.0496788 1.77997 -4.26712e-21)
(-0.0637913 1.76795 0)
(-0.0380321 1.73306 9.46529e-21)
(-0.0220224 1.73789 -2.02175e-20)
(1.03481 0.00739714 0)
(1.04192 0.0108216 -2.66377e-20)
(1.04468 0.0185465 -1.90697e-19)
(1.04341 0.019561 0)
(1.04348 0.0206227 0)
(1.0453 0.00742587 -6.00297e-21)
(1.04077 0.0056412 3.19579e-19)
(1.04155 0.011783 3.82636e-19)
(1.03317 0.0146384 0)
(1.03028 0.0117728 0)
(1.04059 0.0181334 1.93554e-19)
(1.03075 0.0126513 0)
(1.03069 0.0117001 0)
(-0.056848 1.83733 0)
(-0.0397182 1.81253 2.81532e-21)
(-0.0433712 1.83077 1.02247e-20)
(-0.0391913 1.78524 0)
(-0.046415 1.80842 9.87035e-21)
(-0.0379248 1.80217 -6.31028e-21)
(-0.0387518 1.79568 0)
(0.352394 1.71783 0)
(0.363264 1.35078 5.54562e-19)
(0.32707 1.38462 0)
(0.421959 1.31462 -4.16527e-19)
(0.48793 1.42186 0)
(0.44405 1.41403 3.59469e-19)
(1.02654 2.71011 -4.2362e-21)
(0.942384 2.41569 -2.83715e-19)
(0.86754 2.14878 3.74343e-19)
(0.837345 2.35442 1.40033e-19)
(0.843663 2.53027 0)
(0.904245 2.52414 0)
(0.8806 2.37163 0)
(0.913643 2.32074 -4.92742e-19)
(0.675084 2.50663 -5.05894e-20)
(0.801823 2.50554 -1.98688e-20)
(0.806191 2.47661 1.52668e-20)
(0.680644 2.34591 0)
(0.779598 2.35097 0)
(0.747782 2.35325 -2.37528e-19)
(0.753311 2.5073 0)
(0.580498 1.08423 0)
(0.466013 0.924535 -3.64611e-20)
(0.51438 0.955454 -3.58528e-21)
(0.50318 1.05072 0)
(0.499362 1.00604 5.86365e-20)
(0.733936 0.871399 3.18411e-21)
(0.759153 1.00448 0)
(0.729593 0.962249 -4.28215e-20)
(0.594847 1.02593 0)
(0.61394 0.937754 0)
(1.15698 2.77453 2.99886e-20)
(1.13385 2.84121 1.01108e-19)
(0.937824 2.36849 -2.41956e-19)
(0.906108 2.34064 2.27112e-20)
(1.12133 2.74522 0)
(1.0731 2.71596 -3.13609e-20)
(1.07441 2.48678 -9.4495e-20)
(0.968093 2.21831 -2.98843e-20)
(0.504957 1.36523 0)
(0.50552 1.0616 6.26206e-20)
(0.558928 1.13749 0)
(0.856952 0.211193 0)
(0.818943 0.158231 0)
(0.777752 0.161749 0)
(0.84083 0.222335 -3.40622e-19)
(0.788842 0.225861 2.10617e-19)
(0.938911 0.0528105 -1.96437e-19)
(0.945323 0.099923 0)
(0.924661 0.105688 8.8038e-20)
(0.889466 0.0806053 3.59851e-19)
(0.883618 0.0501899 -2.22012e-19)
(1.16174 3.37666 -9.67344e-19)
(1.2066 3.29628 0)
(1.16334 3.40332 -1.91434e-18)
(0.650667 3.56465 1.64122e-18)
(0.875595 3.13127 3.72509e-19)
(0.489968 0.873605 2.35498e-19)
(0.414188 0.861216 0)
(0.352269 0.562974 -8.68666e-20)
(0.420949 0.694848 -4.04779e-19)
(0.522771 0.541578 -1.19805e-19)
(0.505878 0.566096 1.34726e-19)
(0.639783 0.552283 2.89257e-19)
(0.664833 0.548536 0)
(0.606576 0.637263 0)
(0.570091 0.572774 0)
(0.921965 0.576664 -3.74906e-20)
(0.854065 0.512403 -2.18058e-19)
(0.874763 0.545541 1.18033e-19)
(0.918229 0.483635 -1.60475e-19)
(1.00784 0.468462 0)
(1.02838 0.545536 -1.50444e-20)
(0.833876 0.372597 -4.34547e-19)
(0.833737 0.358325 6.6603e-19)
(0.792599 0.37235 3.41818e-19)
(0.774659 0.348278 -3.81019e-19)
(0.822859 0.305118 -2.86176e-19)
(0.781991 0.303428 3.51312e-19)
(1.02934 0.000966812 -2.04413e-19)
(1.03134 -0.000832303 4.17095e-19)
(1.02815 -0.00923063 2.55312e-19)
(1.0325 -0.0107571 -3.06503e-19)
(1.03745 0.00011448 0)
(1.03631 0.00262037 -5.02631e-19)
(-0.390656 1.97651 -4.82529e-20)
(-0.378607 1.82355 0)
(-0.245819 1.92197 -8.86381e-19)
(-0.129315 1.88203 8.3008e-19)
(-0.0658198 1.69723 -5.66818e-19)
(-0.267698 1.73265 0)
(-0.10384 1.83143 0)
(-0.0853858 1.78495 -4.48842e-21)
(-0.0629201 1.78745 4.059e-21)
(-0.056588 1.8057 3.74078e-21)
(-0.0697682 1.83937 -1.17237e-20)
(-0.0796669 1.83714 -2.26184e-20)
(0.496207 1.38699 3.71737e-19)
(0.464044 1.40045 4.31499e-19)
(0.440961 1.29965 3.71737e-19)
(0.397227 1.32289 -2.32398e-20)
(0.6231 1.29124 0)
(0.551757 1.38516 5.01752e-19)
(0.575506 1.35464 -4.86138e-19)
(0.458332 1.2708 -3.65374e-19)
(0.499018 1.22168 0)
(0.556499 1.17549 0)
(0.624299 2.45805 7.4004e-20)
(0.663495 2.47152 6.2069e-19)
(0.700601 2.48379 -4.23832e-19)
(0.611687 2.45723 -1.31452e-19)
(0.558247 2.5639 1.42296e-19)
(0.554984 2.53506 -3.93504e-19)
(0.954716 2.36742 -2.04209e-19)
(0.99801 2.38948 0)
(0.890384 2.13094 -2.77095e-19)
(1.04274 2.69839 0)
(1.04288 2.6873 0)
(0.61829 2.30696 2.30831e-19)
(1.03898 3.17968 4.64625e-19)
(0.910497 3.05092 -4.17765e-19)
(0.296451 0.978054 0)
(0.346496 0.847129 -1.56661e-19)
(0.484299 0.789272 -5.42234e-19)
(0.410722 2.05836 0)
(0.475819 2.80021 -2.59334e-19)
(0.436072 2.56626 0)
(0.636048 0.685016 -3.50622e-19)
(0.709963 0.663636 4.5898e-19)
(0.735211 0.608089 3.1719e-19)
(0.622713 0.648851 5.13091e-20)
(0.685496 0.601994 -2.10597e-19)
(0.998842 2.78785 -3.53175e-19)
(1.03276 2.84365 2.53653e-19)
(0.646808 2.19951 7.93781e-20)
(0.596076 1.74822 -8.76408e-20)
(0.693279 1.93294 6.25285e-20)
(0.984631 2.47118 -7.42852e-20)
(0.989114 2.4734 -1.24021e-19)
(0.666184 1.88393 -2.53345e-21)
(0.441584 1.3521 -5.40573e-20)
)
;

boundaryField
{
    wall-4
    {
        type            noSlip;
    }
    velocity-inlet-5
    {
        type            fixedValue;
        value           uniform (1 0 0);
    }
    velocity-inlet-6
    {
        type            fixedValue;
        value           uniform (0 3 0);
    }
    pressure-outlet-7
    {
        type            zeroGradient;
    }
    wall-8
    {
        type            noSlip;
    }
    frontAndBackPlanes
    {
        type            empty;
    }
}


// ************************************************************************* //
