/*--------------------------------*- C++ -*----------------------------------*\
| =========                 |                                                 |
| \\      /  F ield         | OpenFOAM: The Open Source CFD Toolbox           |
|  \\    /   O peration     | Version:  2412                                  |
|   \\  /    A nd           | Website:  www.openfoam.com                      |
|    \\/     M anipulation  |                                                 |
\*---------------------------------------------------------------------------*/
FoamFile
{
    version     2.0;
    format      ascii;
    arch        "LSB;label=32;scalar=64";
    class       volScalarField;
    location    "28";
    object      p;
}
// * * * * * * * * * * * * * * * * * * * * * * * * * * * * * * * * * * * * * //

dimensions      [0 2 -2 0 0 0 0];

internalField   nonuniform List<scalar> 
918
(
0.294731
0.95384
0.0230945
0.294001
-0.0206365
0.920897
-0.764397
0.468766
0.274811
-0.346108
-0.347831
0.266762
0.781418
0.547561
-1.39137
-0.276929
0.421238
-0.643661
0.273814
-0.188252
0.509057
0.281454
0.284495
0.275093
0.335456
0.530546
0.66199
-0.0199337
0.0109765
-0.0172163
-0.0402011
-0.116309
-0.152442
0.804545
0.855624
0.878295
0.24349
0.0711808
-0.622115
-0.694897
-0.683224
-0.812177
0.460826
0.464592
-0.429437
0.468645
0.480123
0.262166
0.274169
0.2751
0.276206
0.275125
0.276537
0.165805
-0.351622
-0.38118
-0.326433
-0.31957
-0.153123
-0.332701
-0.321126
-0.360369
-0.369821
0.196313
0.263661
0.261259
0.271726
0.278686
0.893386
0.865309
0.891443
0.805089
0.821606
0.759397
0.731915
0.568337
0.589662
0.532165
0.521139
-1.83148
-2.79895
-0.792974
-0.537676
-0.0110256
-0.253289
-0.242543
0.410992
0.413375
0.421343
0.433409
0.817186
-0.638863
-0.775843
0.2739
0.272691
0.281158
0.281839
0.277846
0.276938
-0.23961
-0.279929
-0.0605652
-0.157021
-0.123333
0.495789
0.493169
0.275646
0.27268
0.28635
0.307746
0.298638
0.0347321
0.342048
0.359586
0.348784
0.518564
0.513568
0.522138
0.635539
0.598329
0.69932
0.722647
-0.00519678
-0.00522836
-0.277149
-0.189787
-0.233307
0.239498
0.232364
0.25787
0.246779
0.249188
-0.013478
-0.149917
0.157509
0.181605
-0.531305
-0.596474
-0.701609
-0.716993
-0.82603
0.322755
0.451309
0.451861
-0.448171
-0.36664
-0.507414
-0.29292
-0.357235
0.252636
0.259481
0.25454
0.269886
0.264414
0.266347
0.278424
0.275522
0.277056
0.228197
0.351807
0.0946895
0.0605538
-0.501513
-0.40177
-0.492343
-0.310391
-0.311008
-0.154048
-0.135977
-0.171392
-0.15925
-0.30473
-0.313521
-0.306473
-0.383091
-0.371537
0.18913
0.178522
0.207904
0.215072
0.255401
0.256303
0.258896
0.257391
0.682745
0.705118
0.712563
0.686373
-3.80529
-6.62009
-0.206764
-0.0666801
-0.0232008
-0.0119255
-0.00567228
-0.0118922
-0.00293022
-0.0128213
-0.14993
-0.147669
-0.193321
-0.172688
0.396275
0.396961
0.733516
0.727571
0.719432
0.671402
0.261943
0.264107
0.269662
0.265517
-0.370478
-0.322611
-0.344428
0.477678
0.486386
0.486218
-0.000837548
-0.0849644
0.0809493
0.108056
0.382094
0.365233
0.380515
0.410576
0.446626
0.730133
0.748359
0.746625
0.755021
0.799121
0.815575
0.780823
0.220345
0.229478
0.224653
0.26111
0.258795
0.259728
0.254823
0.256517
0.254162
-0.303188
-0.689589
0.240695
0.257639
0.229284
0.241796
0.398004
0.469148
0.431854
0.440834
0.44259
-0.226144
-0.286058
0.024526
-0.00510632
0.133174
0.167157
0.148072
0.653782
0.614425
0.664327
0.63787
0.599226
0.625087
-0.641642
-2.16289
-1.27036
0.29048
0.10044
0.189468
-0.170644
-0.160109
-0.149199
0.716217
0.795832
0.406765
0.567219
0.579396
0.486145
0.517586
0.571193
0.495831
0.531117
0.567113
0.549593
0.282044
0.252106
0.248238
0.538238
0.594254
-0.112583
-0.165382
-0.212323
-0.119474
-0.0609603
-0.0876541
0.763609
0.653998
0.728921
0.272401
0.273085
-0.0418564
-0.0814546
0.277186
0.277217
-0.0510159
-0.146426
0.171813
-1.10063
-0.125041
0.265594
0.256027
0.272795
-0.333234
0.12835
-0.315876
-0.160057
-0.19388
0.264725
0.205572
0.168337
-0.0457807
-0.314085
-0.25327
-0.459024
0.27006
0.268391
0.272273
0.273318
0.273949
-0.0846843
-0.0792854
-0.0578261
-0.237444
-0.150461
-0.171649
0.237772
0.2544
-0.417914
0.272449
0.274545
0.274393
0.267502
0.273206
0.271411
-0.227704
-0.173534
-0.314041
-0.0148328
0.101608
0.421004
0.518775
0.384361
0.157121
-0.0828954
0.319838
0.386281
0.287473
0.447673
0.442976
0.458713
-0.0634247
-0.209861
-0.0548915
-0.109682
0.263512
0.262149
0.2543
0.251445
0.267698
0.265775
0.270386
0.267296
0.270239
0.27165
-0.292506
-0.313552
-0.330587
-0.390782
0.0859954
0.340657
0.0212397
0.0518954
-0.0913013
-0.349542
-0.351388
-0.299153
-0.308453
-0.216549
-0.210991
-0.176824
-0.163216
-0.215476
-0.214698
-0.251702
-0.245252
-0.259431
0.258512
0.257604
0.263791
0.270718
0.214794
0.218713
0.185544
0.204572
0.190023
0.134926
0.168124
0.14327
-0.0473703
-0.0647741
-0.032948
-0.308148
-0.277308
-0.216605
-0.153123
-0.220418
-0.141198
-0.143766
-0.346956
-0.339455
-0.420804
-0.536191
0.718655
0.664145
-0.146569
0.259336
0.265682
0.262529
0.267176
0.270317
0.271238
0.268968
0.26553
0.255111
0.256929
0.253161
0.253494
-0.358671
-0.494187
-0.319331
-0.386158
-0.12187
0.373884
0.11483
0.0554678
0.0505601
0.267688
0.665465
0.463895
0.466588
0.491238
-0.602771
-0.205137
-0.535587
0.0840361
-0.0931745
0.419028
0.470148
0.493253
0.439639
0.390473
-0.375719
0.283493
-0.30502
-0.261728
-0.0717048
-0.174992
0.463303
0.425774
0.430284
0.446
0.465078
0.430299
0.408468
0.405267
0.442614
0.44801
0.240529
0.0174514
-0.0270779
-0.0648328
0.408377
0.282264
0.3397
0.254481
0.258317
0.261206
0.259723
0.242506
0.249791
0.245592
0.251163
0.254291
0.263449
0.263784
0.259188
0.261528
-0.293527
-0.302908
-0.272441
-0.382154
-0.373246
-0.421999
-0.315797
-0.180266
-0.215331
-0.0252639
0.0837974
-0.20471
-0.322533
-0.29261
-0.264409
-0.0793628
-0.054285
-0.158587
-0.0726617
-0.0850111
-0.0927345
0.00290856
0.00830427
-0.298987
-0.256351
-0.274266
-0.292477
-0.192699
-0.137237
-0.118628
-0.339362
-0.292152
-0.376782
-0.382175
-0.263074
-0.273254
-0.260461
-0.220719
-0.306665
-0.287593
-0.303094
-0.38146
-0.311836
-0.306057
0.253418
0.254862
0.254984
0.263725
0.277139
0.291933
0.256607
0.235852
0.227168
0.230156
0.205227
0.21462
0.210248
0.223059
0.242505
0.249905
0.249343
0.251657
0.235063
0.237017
0.224248
0.227161
0.204856
0.187702
0.176782
-0.217815
-0.136842
-0.200747
-0.168206
-0.0883247
-0.11978
-0.261848
-0.290928
-0.288726
-0.266284
-0.22571
-0.299335
-0.283796
-0.333614
-0.258994
-0.442768
-0.475301
-0.544975
0.627614
0.738481
0.55543
0.33853
0.341993
0.573429
0.665511
0.304751
0.477461
0.506193
0.295595
0.55638
0.264098
0.263711
0.261343
0.260765
0.262135
-0.275264
-0.175305
-0.159908
-0.110558
0.00877597
0.124687
0.028944
-0.0936469
0.0431381
0.0509289
0.368765
0.385258
0.329895
0.355016
0.353122
0.18033
0.256856
0.311622
0.266237
0.309768
0.331779
0.293146
0.323143
0.270705
0.228749
0.227496
0.172711
0.193895
0.171362
0.153238
0.253619
0.232138
0.242196
0.233107
0.252706
0.280397
0.274796
0.301691
0.313533
0.238415
0.199382
0.208443
0.235914
0.197943
0.211243
0.226045
-0.0482309
-0.148734
-0.059907
-0.351267
-0.266878
-0.283011
-0.328852
-0.286411
0.000179094
-0.699467
-0.671883
-1.3072
0.2232
0.694185
0.419243
0.390382
0.460868
0.438737
0.441882
0.466855
0.473502
0.397696
0.41533
0.41924
0.370996
0.395828
0.420196
0.41767
0.252587
0.132737
0.124003
0.0848788
-0.037938
-0.00627131
0.198352
0.120173
0.0471981
0.0521714
0.215906
0.106663
0.17199
0.210152
0.142365
0.0986027
0.297363
0.365348
0.356838
0.330589
0.246403
0.258643
0.284813
0.320686
0.347255
0.382148
0.250926
0.2566
0.25786
0.255443
0.252596
0.255437
0.2556
0.258099
0.25892
0.261897
0.260875
-0.296293
-0.269
-0.300883
-0.311552
-0.267923
-0.275265
-0.229185
-0.234815
-0.254138
-0.245288
-0.278365
-0.276822
-0.278195
-0.266574
-0.141897
-0.122962
-0.13838
-0.18607
-0.0126299
0.125121
0.188195
0.0715865
-0.0386409
-0.00781799
0.0186251
-0.24487
-0.210017
-0.213332
-0.181721
-0.19196
-0.368187
-0.399288
-0.403593
-0.316664
-0.33545
-0.438078
-0.37862
-0.416125
-0.41247
-0.395887
-0.384075
0.237856
0.231357
0.233153
0.227573
0.226248
0.239618
0.243716
0.245268
0.250242
0.251866
0.243151
0.248005
0.251338
-0.41317
-0.389198
-0.41607
-0.453166
-0.428292
-0.380387
-0.395749
-0.152265
-0.224463
-0.219294
-0.26049
-0.383228
-0.326965
0.207707
0.204861
0.219232
0.43205
0.285954
0.20394
0.297827
0.400718
-0.00636443
0.194002
0.0250309
0.606391
0.494289
0.6375
0.265083
-0.0315007
0.121159
0.1733
-0.020798
0.0495994
0.0641972
-0.0470255
-0.0159991
0.0138301
0.113831
-0.00723082
-0.0349643
-0.281392
-0.0973785
0.0305893
0.00919551
0.144581
0.209535
-0.0230342
-0.098243
-0.141993
0.35965
0.379861
0.398686
0.368414
0.393121
0.315232
0.306236
0.324832
0.333734
0.327653
-1.03481
-0.742344
-1.68638
-0.997441
-0.547231
0.258193
0.216951
0.494157
0.384022
0.453331
0.437442
0.397163
0.361588
0.372693
0.406329
0.108198
0.218404
0.192004
0.199212
0.102169
0.0356151
0.333978
0.327372
0.365983
0.389922
0.35474
0.389188
0.248605
0.248274
0.248127
0.244863
0.243082
0.245022
-0.185909
-0.207974
-0.185776
-0.202627
-0.218429
-0.223694
-0.439591
-0.450193
-0.496073
-0.497298
-0.472597
-0.437101
-0.115941
-0.171368
-0.2434
-0.215764
-0.272128
-0.335158
-0.352895
-0.256168
-0.168536
-0.175894
0.12684
0.378513
0.203227
0.372307
0.20901
0.266309
0.212671
0.206018
0.237196
0.107596
0.183213
-0.0460863
-0.55228
-0.459289
0.510098
0.530334
0.320671
0.131881
-0.0983597
0.0905248
0.281609
0.220024
0.260092
0.32851
0.322038
-0.262948
-0.194555
0.0614754
0.288733
-0.040324
-0.0473663
-0.0524078
0.118811
0.0435577
)
;

boundaryField
{
    wall-4
    {
        type            zeroGradient;
    }
    velocity-inlet-5
    {
        type            zeroGradient;
    }
    velocity-inlet-6
    {
        type            zeroGradient;
    }
    pressure-outlet-7
    {
        type            fixedValue;
        value           uniform 0;
    }
    wall-8
    {
        type            zeroGradient;
    }
    frontAndBackPlanes
    {
        type            empty;
    }
}


// ************************************************************************* //
