/*--------------------------------*- C++ -*----------------------------------*\
| =========                 |                                                 |
| \\      /  F ield         | OpenFOAM: The Open Source CFD Toolbox           |
|  \\    /   O peration     | Version:  2412                                  |
|   \\  /    A nd           | Website:  www.openfoam.com                      |
|    \\/     M anipulation  |                                                 |
\*---------------------------------------------------------------------------*/
FoamFile
{
    version     2.0;
    format      ascii;
    arch        "LSB;label=32;scalar=64";
    class       surfaceScalarField;
    location    "28";
    object      phi;
}
// * * * * * * * * * * * * * * * * * * * * * * * * * * * * * * * * * * * * * //

dimensions      [0 3 -1 0 0 0 0];

oriented        oriented;

internalField   nonuniform List<scalar> 
1300
(
3.75095
5.62643
-5.32881
3.75095
-5.3767
5.62643
-4.46601
4.46601
-1.10134
1.10134
1.87646
1.87449
-2.96483
2.96483
-2.28797
2.28797
-2.56282
2.56282
-5.24643
5.24643
-5.0689
5.0689
4.67157
-4.67157
-4.05314
4.05314
-1.50189
1.50189
-3.90702
3.90702
3.16987
-3.16987
-2.97659
2.97659
-0.304294
0.304294
-0.553555
4.30451
3.1974
3.1974
-2.1511
2.1511
-4.86127
4.86127
6.21813
-6.21813
7.74109
-7.74109
-2.41228
-3.41077
1.62368
-9.49209
-3.75301
-3.75301
-8.44039
8.44039
-2.81396
2.81247
2.94247
-2.94247
-1.7867
1.7867
-4.40487
-0.0611374
-4.40487
4.46704
-0.00102673
4.46704
-1.23077
0.129433
-1.23077
3.97111
-3.97111
0.934121
0.167218
0.934121
3.06457
-3.06457
-1.87714
3.7536
1.87381
-1.87183
6.17634
-1.87912
3.75361
-5.91018
5.91018
-3.21807
0.253248
-3.21807
2.76049
0.204339
2.76049
-6.6849
6.6849
-2.45906
0.171086
-2.45906
2.22231
0.0656558
2.22231
2.85871
-2.85871
-2.66089
0.0980751
-2.66089
2.46054
0.102282
2.46054
0.353543
5.27289
-5.97997
8.79244
-5.27289
0.0264617
5.2084
0.0380288
5.2084
-5.10613
0.0372306
-5.10613
5.01147
0.0574302
5.01147
4.76459
-0.0930263
4.76459
-4.78546
0.113894
-4.78546
-2.88747
-4.53509
-4.52187
0.468733
-4.52187
-1.50273
0.000843469
-1.50273
1.454
0.0478887
1.454
-3.54099
3.54099
-4.26959
0.362571
-4.26959
3.12452
0.0453534
3.12452
1.86854
1.88241
5.61949
-5.61949
2.44962
-2.57985
-0.396738
-2.57985
-3.42413
-4.31696
3.42413
-0.447544
-0.573498
0.269204
-0.573498
3.15918
0.0382224
3.15918
2.3392
0.121337
-2.3392
0.188102
3.22587
-3.22587
1.53405
0.617044
1.53405
-5.56725
5.56725
4.95316
0.058306
-4.95316
0.0918925
6.15711
0.0610188
6.15711
-6.19962
-0.0185069
-6.19962
2.33221
-5.74298
-3.9658
3.78676
0.26638
-3.78676
0.0337436
2.91229
0.0301759
2.91229
-2.9223
2.9223
-2.98266
0.0401882
-2.98266
-2.19054
0.403844
-2.19054
1.48196
0.304744
1.48196
-4.27824
-0.126633
-4.27824
-4.40263
0.133039
4.40263
0.0644066
1.04018
-1.04018
-1.35056
0.119789
-1.35056
-4.11558
-0.162656
4.11558
-0.144474
-3.85334
-0.117774
-3.85334
-3.02334
0.0406839
3.02334
0.0412307
3.11236
0.0468199
-3.11236
0.0477829
-1.87083
3.75325
-1.88012
3.75393
-5.5202
-0.389984
-5.5202
6.21427
-0.304089
6.21427
3.55715
0.349868
-3.55715
0.339079
2.58743
0.173056
2.58743
-6.66798
-0.0169176
-6.66798
6.58368
0.101219
6.58368
2.49346
0.0939746
-2.49346
0.0343996
2.24737
-0.0250594
2.24737
2.86367
-0.00496766
2.86367
-2.86215
0.00344499
-2.86215
2.80441
-2.80441
2.73703
0.0673843
-2.73703
0.0761329
-11.1327
11.1142
-0.0350464
-11.0977
5.17335
5.17335
4.19675
0.567845
4.19675
-4.99993
0.21447
-4.99993
2.41647
-6.38226
4.38072
-7.26819
4.27808
-13.7702
3.32055
-7.85564
5.91088
-5.91088
5.24154
0.669331
-5.24154
0.719674
-1.52832
0.0255862
-1.52832
-2.9308
-0.610192
-2.9308
4.20003
-0.659038
4.20003
-3.02939
3.02939
-3.07837
0.0489863
3.07837
0.0461464
2.38215
-0.134778
-2.38215
-0.197698
0.754412
0.179708
-0.754412
0.180914
3.44685
-0.220982
3.44685
-3.02456
-0.201312
-3.02456
-1.53429
0.00597095
1.53429
-0.00023846
-5.81504
0.24779
-5.81504
-11.1907
0.093041
-11.1527
-6.10658
-6.10658
2.33381
11.1262
-2.88457
0.0224227
2.88457
0.0277206
2.97668
0.0527034
-2.97668
0.0543813
-2.86513
0.06072
2.86513
0.0571704
-2.56908
0.378538
-2.56908
-1.06391
1.06391
-1.24679
0.182877
1.24679
0.235171
1.27655
-0.236372
1.27655
1.40673
0.047273
-1.40673
0.0561678
-3.74411
-0.109221
-3.74411
6.43996
-0.225689
6.43996
-2.91305
-0.111513
2.91305
-0.0493738
-0.0333351
11.1476
-5.14002
0.033889
5.14002
-11.2086
11.2425
-3.24344
0.674358
3.24344
0.953308
5.29021
0.277039
-5.29021
0.290278
6.36628
0.217399
-6.36628
0.455407
-2.43834
-0.492461
-2.43834
-4.93174
-0.588454
4.93174
-0.731713
-11.4745
-0.204679
11.6792
-11.4171
6.01972
0.137395
-6.01972
11.3799
-0.97879
-0.0613898
0.97879
0.0851184
1.5873
-0.310744
1.5873
3.6394
-0.192543
-3.6394
-0.104717
-6.58517
-0.0828153
6.58517
-0.145209
-1.99683
-0.44151
1.99683
-0.409532
-4.2669
4.30512
1.90944
-1.77102
-3.97197
-6.08798
1.85184
1.90141
4.30146
-8.79033
-4.97984
-8.75659
7.26762
-6.97734
-9.27745
9.18442
7.58718
-7.70496
-5.78518
5.83133
6.48165
-6.44042
1.87904
1.87456
7.91828
-7.66503
-15.6527
15.2627
6.89234
-6.72126
15.7508
-15.7677
-17.8929
18.1103
-5.73437
5.83244
-6.70809
6.71154
-6.88798
6.83861
-1.77422
-5.49397
12.8619
-12.3932
7.22531
-7.62204
-8.498
8.86057
3.38238
0.92274
3.4292
-1.88233
3.76137
-1.87129
3.78072
4.36649
-6.14071
2.01578
-5.98774
4.16622
3.05908
-3.71868
-2.3693
-5.9182
5.94837
-5.82219
5.87936
8.90882
-8.96996
-1.885
3.75957
-1.86893
3.77034
-3.42525
-2.35993
3.3799
0.92156
7.3312
5.53069
-7.59758
-1.15901
-7.80691
7.61437
-8.08244
7.88113
-0.443598
5.8205
-5.3769
4.41767
-1.55792
7.37842
5.7097
5.92417
5.86682
-5.58978
1.11052
-6.48742
-6.39553
-2.55101
2.6708
2.50952
-2.3423
5.95055
1.63664
5.80607
-5.54936
-2.1556
-5.65858
3.8211
2.01023
3.87008
4.07593
2.40572
4.11662
3.03109
-3.03531
0.00421965
-3.05622
6.08731
0.724258
-5.41615
-4.4946
4.92448
2.9938
5.12882
-5.49553
-2.1695
-5.15645
-9.52833
-6.12435
-10.1168
10.0924
5.17031
9.78829
-11.9668
11.8216
3.88928
3.00306
3.95494
-4.6946
-2.02665
-4.6602
11.96
-2.89804
-9.06193
-10.313
-7.57997
10.2118
5.53904
10.8809
7.22944
11.3363
4.56026
7.3997
-10.0993
2.51933
-3.87328
-1.86109
-3.79715
3.70764
2.1248
3.80992
-4.20952
-2.49857
-4.1871
-4.27079
-2.6172
4.27575
2.43579
-4.3486
-3.73384
4.46011
2.3785
4.52185
-9.50169
3.33379
-8.82776
-9.34917
-3.04398
-8.6295
5.55111
1.18726
-6.73836
-0.589599
8.94664
-5.88756
6.57734
-4.01554
-3.6065
-4.21324
-6.78996
-1.70804
-6.65692
-8.87379
8.38133
-9.18363
8.5246
12.7216
-5.7068
-7.01479
-3.96803
-2.47239
3.92025
-0.491047
-3.71202
3.71624
0.0493501
3.83007
4.75282
4.26177
-3.88716
-1.93503
-3.83278
3.83324
2.04612
3.89396
6.7249
2.18392
6.72388
-6.43159
-2.53837
-6.55823
9.09603
-8.69219
2.93789
-2.93192
5.26743
2.6137
-5.04644
-2.76047
6.15182
-3.09065
-3.06116
-12.2127
10.5637
1.64899
-4.83432
-0.416649
-0.112355
-5.50108
-3.77637
5.38718
0.536989
11.1007
7.32436
-5.51332
5.76111
6.1659
6.22421
-0.171324
5.84689
-5.17253
5.36034
-2.4689
-2.89144
5.29605
-5.4587
-1.26218
-5.31003
4.04785
0.34737
1.74207
-1.47286
-2.01515
-0.535851
-1.95899
1.48499
1.02453
1.6647
0.9828
1.688
-2.93397
0.524873
2.4091
-1.95117
-1.81743
-3.6891
-1.01295
4.70205
5.55154
2.06283
-5.44682
-0.211759
2.73675
-2.68886
-0.812901
-2.8762
2.08758
-2.90048
-3.56061
-1.90185
5.46246
-3.37075
-0.46203
3.31804
0.55204
-3.8252
-2.093
3.78501
0.331608
-3.1242
6.18978
-3.06558
-5.05923
2.52916
3.55815
4.53939
-4.79036
2.44652
2.34384
-1.23221
4.21462
0.914204
4.38767
-6.72214
4.55263
5.72386
3.1367
-6.07373
0.917282
-5.80485
8.47732
-7.26972
-1.2076
4.10967
4.36765
7.18652
5.53507
-5.75456
12.9411
-1.13815
-6.13157
6.943
-3.8063
4.73869
-8.54498
-10.2738
4.14218
-9.22086
10.9584
-1.73754
-3.61105
-8.3558
12.8319
-1.2068
-11.6251
8.58149
-4.12899
-4.8084
8.93738
-7.02703
6.83505
-1.79316
-5.04189
-10.0982
-5.66947
10.1811
1.64059
-11.0187
13.538
-3.61895
3.10694
0.847993
3.08188
3.2924
-5.4248
2.1324
3.73463
-5.52779
2.08533
-7.51013
-7.67588
12.7705
-5.09462
-10.7199
-10.5206
-0.199247
2.58343
10.9545
-9.81287
7.14448
2.66839
3.31051
0.583448
-3.3779
-0.419253
0.284393
4.55827
-4.84266
4.09432
4.21565
3.41636
1.1419
3.83918
2.10919
-3.8669
-0.320195
-4.13985
1.52265
-1.70406
-3.64465
5.1673
-4.08053
0.435876
-2.72894
-3.5286
6.25753
-4.59002
3.03994
3.14984
5.08606
-4.91073
1.38214
-2.40923
-2.5015
2.69839
-4.40245
1.94328
3.22402
4.32178
0.587938
7.20472
5.56578
-8.39198
-0.435784
11.0965
-9.93747
3.03693
8.29938
-10.1814
-0.339212
-8.96871
-0.166177
-5.72138
-6.90454
5.05845
-6.76649
-3.48653
6.13901
0.584871
-6.20341
-0.453504
-6.02128
-2.85251
-6.46279
-3.06272
-6.12092
-8.81727
-1.65021
-7.16706
6.73111
-6.66698
-3.4498
7.39869
1.12591
-7.40283
7.34144
-7.48356
7.17281
0.0944854
3.62175
4.35625
1.88386
-2.38955
4.27341
-5.06619
7.25011
-8.49927
3.43308
4.00495
-6.54332
-4.49432
5.04811
4.04792
5.35286
8.9712
-10.5064
1.53524
-10.8369
12.1522
-1.31526
-16.6271
5.79024
-7.65595
2.67569
0.262202
2.70128
0.670085
2.41435
-3.08444
-2.26184
-2.26208
-2.32311
-3.38803
5.71114
1.14767
-3.38664
2.23897
-3.47223
4.6199
-0.0712893
-3.31535
5.26115
-2.8468
5.52336
-3.54352
1.97983
3.30501
5.63846
-2.33345
4.3189
-1.7052
1.82961
-4.16305
-1.55843
-2.98972
5.11452
-3.26781
3.70369
-0.271861
3.97555
-4.074
0.983347
-0.657634
3.55802
3.74612
4.27431
-3.1324
2.94991
-4.6551
-1.21314
-4.06717
-0.843144
-0.294439
-3.8008
4.09524
6.07344
-6.36788
-5.26702
9.58783
-4.32082
7.73378
-5.40898
-2.32479
-4.28324
-4.40895
3.90471
1.94219
9.67596
0.212994
-5.62198
-4.95954
-4.00623
3.21799
2.14235
-1.95153
3.60053
2.06389
-0.321823
0.584057
1.08064
1.8556
-1.27155
0.211305
1.6443
-1.26156
2.00184
0.734904
-2.04912
0.0901284
-1.39914
3.48671
1.00996
-2.03449
0.762943
1.03501
-3.50391
4.81866
-2.48095
-2.33772
5.85368
1.15706
-3.63801
4.15297
-3.8056
2.32315
-3.33611
-1.31485
-5.12045
-3.48381
-2.50206
4.74103
-3.20908
5.27191
1.18042
-5.06015
6.24058
-3.56197
1.66012
-3.05102
3.78593
-1.05793
-1.9931
2.76984
2.69262
-2.91852
0.0423249
-0.148678
2.31006
-2.45873
-0.590423
-2.54159
-4.57231
4.90392
-2.10682
4.55335
2.16658
-1.914
6.46735
1.81164
-3.72564
-3.24759
-3.70962
-1.38181
3.15758
-0.432985
-4.22722
-5.47487
4.13324
0.25443
-6.90346
7.7487
-0.845243
-3.90966
-0.642971
4.75264
-5.99363
0.46584
-3.9083
3.8404
4.7546
5.00903
-11.4277
-0.197426
-6.25738
1.17004
-7.42742
5.53769
-3.63353
7.77571
-10.4335
6.98365
-9.30755
6.56811
-0.859304
6.22643
-4.09403
2.83549
-8.50496
-6.86437
5.42681
-2.42375
6.2748
-2.89469
9.16949
-6.51364
4.76274
4.40675
-1.15662
-3.05662
-4.65323
3.49661
0.109514
3.1914
4.97571
-2.86652
4.65552
2.24551
-4.65474
-2.15694
-6.496
1.84127
-3.34616
-1.91322
3.75448
3.17285
3.7563
1.25298
-3.33704
9.09688
-9.29613
-4.00226
-2.90228
4.64374
-1.14713
4.68414
-7.58642
-1.03724
4.89053
-0.830047
-4.06048
0.816269
-4.3028
1.65118
-5.95399
5.11531
-5.56881
2.19595
-9.85189
-5.20688
-5.12176
-2.23825
-5.24531
-7.65
5.41175
-1.85976
5.48168
-8.65598
7.82594
-3.49618
8.90793
-5.42513
-1.03766
5.83466
1.33815
10.2461
0.167775
-4.66209
-1.9141
4.00273
-2.08863
1.30389
-3.63302
0.369708
2.4415
3.41217
-6.48935
-0.0539684
-4.71606
-3.92946
7.97738
5.65838
11.7318
1.22537
9.17933
-1.20195
10.4047
4.15091
4.38608
-3.0488
4.58404
1.04644
4.47951
-0.844897
2.82473
1.85638
1.85722
0.831634
2.2946
1.45152
3.27795
0.193509
-2.06857
4.64033
-8.64656
-0.981645
-8.07872
1.1057
5.72826
-4.62255
3.15444
-1.01209
1.06581
0.0922394
-1.63335
1.54111
-2.7992
-1.95517
-0.310876
-1.59791
2.36085
1.8888
-2.04998
-0.749225
0.314056
-3.79787
3.02205
-2.97973
-0.287109
5.95347
-2.73339
0.274654
-1.07327
-2.26694
-2.80279
2.71266
6.17618
0.291167
3.1106
5.19508
3.10208
0.235558
3.96704
-5.70458
-3.54309
-5.90201
-0.364312
4.38833
1.67717
9.27738
6.08392
4.93678
-2.64964
-11.9458
6.57005
-1.98601
5.25479
-1.19431
-4.75968
4.97363
2.27648
-5.55851
-0.0103067
-4.76999
-6.75599
-0.541562
8.3675
-9.70452
8.66687
5.81435
1.3527
-4.41188
-0.70988
4.229
0.157077
10.5618
-1.12281
-6.83135
7.95416
-4.60545
3.6238
0.847912
2.75261
2.38902
1.37693
-5.45442
-10.077
-1.91811
-1.5858
-4.25582
0.446226
-2.33503
6.26243
-2.63862
3.93763
5.31554
6.38135
-2.16004
-4.20784
6.48085
-2.54322
3.83813
)
;

boundaryField
{
    wall-4
    {
        type            calculated;
        value           uniform 0;
    }
    velocity-inlet-5
    {
        type            calculated;
        value           uniform -3.75095;
    }
    velocity-inlet-6
    {
        type            calculated;
        value           uniform -5.62643;
    }
    pressure-outlet-7
    {
        type            calculated;
        value           nonuniform List<scalar> 8(5.32881 5.3767 5.82305 7.8684 7.42256 6.29801 6.79719 7.59863);
    }
    wall-8
    {
        type            calculated;
        value           uniform 0;
    }
    frontAndBackPlanes
    {
        type            empty;
    }
}


// ************************************************************************* //
