/*--------------------------------*- C++ -*----------------------------------*\
| =========                 |                                                 |
| \\      /  F ield         | OpenFOAM: The Open Source CFD Toolbox           |
|  \\    /   O peration     | Version:  2412                                  |
|   \\  /    A nd           | Website:  www.openfoam.com                      |
|    \\/     M anipulation  |                                                 |
\*---------------------------------------------------------------------------*/
FoamFile
{
    version     2.0;
    format      ascii;
    arch        "LSB;label=32;scalar=64";
    class       volVectorField;
    location    "28";
    object      U;
}
// * * * * * * * * * * * * * * * * * * * * * * * * * * * * * * * * * * * * * //

dimensions      [0 1 -1 0 0 0 0];

internalField   nonuniform List<vector> 
918
(
(0.985168 -0.00049613 0)
(0.00500845 2.96625 0)
(-0.0415139 1.40524 0)
(0.9797 0.00214949 0)
(0.0121411 1.4079 9.89335e-20)
(-0.00704121 2.94879 -1.95839e-18)
(0.838364 1.18026 6.72483e-19)
(0.366853 0.16728 -1.03627e-20)
(0.999905 -0.000292127 0)
(0.0628583 0.854049 0)
(0.00618026 0.645345 0)
(0.732943 -0.00872162 0)
(0.0111377 2.93034 0)
(0.00210011 2.79514 0)
(-0.0175723 3.15942 1.02374e-18)
(-0.0185965 1.21511 2.49137e-19)
(0.459915 0.0645497 6.55491e-19)
(0.188923 1.21182 5.72103e-19)
(0.96279 0.00499513 0)
(-0.0479152 0.851258 0)
(0.0942892 0.206158 -5.06344e-19)
(1.00199 -0.00498479 0)
(1.00021 -0.00980516 0)
(0.975708 -0.00644322 0)
(0.611979 -0.0449685 0)
(0.0166409 2.63692 0)
(-0.0150029 2.91013 6.84647e-19)
(-0.104658 1.3278 0)
(-0.115706 1.53909 0)
(-0.0613612 1.36974 0)
(-0.000466915 2.1226 0)
(0.0748714 1.46208 -7.81271e-20)
(0.0434481 1.14799 0)
(-0.0206104 2.9876 -6.88506e-23)
(-0.016693 3.0053 1.52207e-18)
(0.00210282 3.00019 0)
(0.870076 -0.00933513 0)
(0.404254 0.941393 9.68154e-21)
(0.817731 1.19803 -9.22477e-19)
(0.967327 1.03502 8.78539e-19)
(0.686135 1.29257 -1.56141e-19)
(0.683705 1.28271 8.78391e-19)
(0.40803 0.260873 1.01102e-20)
(0.396966 0.148176 0)
(1.15432 0.55897 0)
(0.36889 0.262375 4.66091e-20)
(0.321415 0.170548 -4.83711e-20)
(0.919641 -0.00751536 0)
(1.00028 0.000146465 0)
(0.999913 0.000340242 0)
(1.00364 -0.00778792 0)
(1.00096 -0.000943139 0)
(1.00017 2.12878e-05 0)
(0.0819441 1.78447 -3.15597e-19)
(0.0423579 1.00536 0)
(0.083364 0.932688 0)
(0.0203838 0.93904 0)
(0.0329239 0.785294 0)
(0.0187722 1.99098 0)
(0.0223538 0.795191 0)
(0.00321538 0.688626 0)
(-0.010129 0.747416 0)
(-0.0160201 0.625311 0)
(0.833749 -0.0142182 0)
(0.853207 0.0257702 0)
(0.767305 0.000717775 0)
(0.827826 0.0323324 0)
(0.703937 -0.0160063 0)
(0.0146921 3.0004 7.18613e-19)
(0.0115047 3.00801 0)
(0.00611582 3.00279 0)
(0.0135458 2.99736 8.03808e-24)
(0.00797676 2.95846 -1.06804e-18)
(0.0144906 2.98203 0)
(0.010845 2.90359 0)
(0.0244638 2.93053 1.47377e-24)
(0.0044557 2.82532 0)
(0.0311843 2.91619 0)
(-0.00546594 2.74485 0)
(0.310005 3.55824 0)
(-0.132075 3.64001 0)
(0.140419 3.25023 9.52718e-19)
(-0.0124001 2.98447 0)
(-0.209495 1.98406 0)
(-0.0316902 1.45014 -2.45587e-19)
(-0.100074 1.35466 1.99155e-19)
(0.534077 0.152555 -2.25976e-19)
(0.457992 0.0365892 -2.18494e-19)
(0.515374 0.179821 -6.82589e-19)
(0.442161 0.0870573 -4.55569e-19)
(0.214658 0.913604 0)
(0.269361 1.35123 -6.05916e-19)
(0.383999 1.29866 9.97205e-19)
(0.98752 0.00850571 0)
(0.942089 0.00586093 0)
(1.0003 0.000571678 0)
(1.00287 0.00929994 0)
(1.00303 0.00842731 -1.41009e-18)
(0.991923 0.00971777 1.06473e-18)
(-0.0619156 0.915041 0)
(-0.0311575 0.738189 0)
(-0.111971 1.28072 0)
(-0.0568337 1.04721 0)
(-0.02713 0.996402 0)
(0.143786 0.2144 1.56487e-19)
(0.196437 0.19231 0)
(0.993517 -0.00840811 0)
(0.954368 -0.0065052 0)
(0.786459 0.0344025 0)
(0.741926 0.0436204 0)
(0.669199 -0.033473 0)
(0.956736 -0.00375523 0)
(0.674809 0.0597662 0)
(0.511601 -0.0205386 8.94165e-19)
(-0.036361 2.86386 3.84241e-19)
(0.041944 2.90916 0)
(0.0551709 2.8846 0)
(-0.00486516 2.6988 0)
(-0.012993 2.98528 6.32663e-19)
(-0.0180653 2.89529 0)
(-0.0153813 2.9881 -1.9943e-18)
(-0.0133129 2.92523 6.87843e-19)
(-0.219092 1.55056 0)
(-0.211339 1.67817 0)
(0.0406733 1.37551 8.82733e-21)
(0.0743803 1.34289 0)
(-0.00281084 1.14022 0)
(0.937455 -0.00779429 0)
(0.855391 -0.00948421 0)
(0.864108 0.00692786 0)
(0.948799 -0.00804107 0)
(0.883353 -0.00827246 0)
(0.517212 1.13579 -2.13826e-20)
(0.567384 1.18761 0)
(0.366832 0.884643 1.01838e-20)
(0.309062 0.744635 0)
(0.927111 1.07332 -2.52579e-19)
(1.04072 0.875302 5.15887e-19)
(0.377993 1.39064 0)
(0.538876 1.35953 0)
(0.544685 1.3196 0)
(0.104717 0.174463 -1.67053e-19)
(0.449723 0.242673 0)
(0.427062 0.133174 1.30103e-19)
(1.01135 0.929375 0)
(1.07892 0.777088 0)
(1.10442 0.719473 -4.45472e-19)
(1.13397 0.618428 0)
(1.18153 0.403371 5.68729e-20)
(0.95732 -0.00869531 0)
(0.962274 -0.0100739 0)
(0.901365 -0.0081469 0)
(0.984114 -0.00920725 0)
(0.974561 -0.00935793 0)
(0.936971 -0.00634801 0)
(1.00018 0.00231964 0)
(1.0009 0.00143785 0)
(0.999902 0.000846188 0)
(0.0352867 2.04287 1.94071e-19)
(0.119589 1.7206 0)
(0.0115062 2.15745 7.66155e-20)
(0.0562493 1.85045 -1.13158e-19)
(0.134266 1.20341 -4.73343e-19)
(0.0434303 1.08201 0)
(0.104911 1.07661 0)
(0.0296983 0.886993 0)
(0.00834064 0.725154 0)
(-0.0103222 2.1811 2.13976e-21)
(0.0294464 1.9821 0)
(-0.0356867 2.15198 1.43991e-19)
(-0.00865921 1.97479 3.26484e-22)
(0.00485515 0.856241 0)
(0.00594507 0.834314 0)
(-0.00436509 0.690852 0)
(-0.0193562 0.743919 0)
(-0.0262385 0.634367 0)
(0.930254 0.00717182 0)
(0.838824 -0.01439 0)
(0.923241 -0.000614717 0)
(0.838151 -0.0108609 0)
(0.81381 0.00448135 0)
(0.903924 0.0184313 0)
(0.882243 0.0211349 0)
(0.790385 0.00290671 0)
(0.00563408 3.06473 -6.38721e-21)
(0.0165536 3.05794 0)
(0.0146372 2.96909 0)
(0.00852425 2.87628 0)
(0.928335 3.97693 0)
(1.24372 3.30916 9.96874e-19)
(0.0703938 3.07674 0)
(-0.0278766 2.90734 0)
(-0.286837 1.6916 0)
(-0.290011 1.9331 0)
(-0.243778 1.80998 0)
(-0.0617326 2.14623 -2.95453e-20)
(-0.22051 2.07725 0)
(-0.131119 2.03462 0)
(-0.111242 1.80239 -5.46467e-21)
(-0.130743 1.81052 -1.29386e-19)
(-0.112646 1.60523 -2.03616e-19)
(-0.13359 1.58843 0)
(0.562114 0.124483 3.33373e-19)
(0.475462 0.0123525 -3.26397e-19)
(0.261053 1.54858 0)
(0.262649 0.689299 -2.27707e-19)
(0.177933 1.63577 -7.64165e-19)
(0.226467 1.16375 7.66108e-19)
(0.902515 0.00670032 0)
(0.967629 0.0109919 0)
(0.974748 0.0107318 0)
(0.923655 0.00662249 0)
(-0.0185133 0.763699 0)
(-0.0329477 0.815286 0)
(-0.0400345 0.683178 0)
(0.312711 0.254369 4.26471e-19)
(0.254758 0.230468 -5.08761e-19)
(0.267287 0.18207 0)
(1.08552 0.0869294 2.12608e-21)
(1.06883 0.0405842 0)
(0.997469 0.0413202 0)
(0.892056 -0.000424817 0)
(0.585762 0.0953511 0)
(0.615373 0.0713445 -1.43708e-18)
(0.490358 -0.00114956 5.46018e-19)
(0.00926311 2.98106 4.64929e-19)
(-0.0330316 2.86612 4.65094e-20)
(0.00372582 3.05021 -1.37477e-20)
(0.0200961 3.04344 4.93374e-19)
(-0.0149933 2.99657 2.28191e-20)
(-0.0129927 2.94948 -9.22405e-23)
(-0.0172742 3.01195 -4.30705e-19)
(0.0148691 3.02383 3.11616e-19)
(0.00736387 3.03682 -4.88124e-19)
(0.931155 -0.00143579 0)
(0.937705 -0.00373895 0)
(0.843325 -0.00883656 0)
(0.956915 0.0115247 0)
(0.943425 0.0125015 0)
(0.882193 0.00642582 0)
(0.919431 0.0153163 0)
(0.927373 0.014147 0)
(0.840006 0.00557381 0)
(0.722155 1.41553 2.7268e-19)
(0.756035 1.52493 0)
(0.201086 0.35223 3.49923e-20)
(0.198982 0.638471 2.8307e-19)
(0.252582 0.713937 -1.64565e-19)
(0.275451 0.555697 3.15637e-19)
(0.313682 0.742554 9.20956e-19)
(0.119635 0.20342 2.44494e-19)
(0.491887 0.200523 -4.73763e-19)
(0.473343 0.217953 1.23754e-19)
(0.434331 0.11189 2.44624e-19)
(1.16994 0.460289 2.47734e-19)
(1.18193 0.254848 2.55837e-19)
(0.0108341 2.19559 3.96483e-20)
(0.0422497 1.90046 0)
(0.954858 0.0302274 0)
(0.92957 0.0137368 0)
(0.853605 -0.0129304 0)
(0.0112394 3.07461 0)
(0.0198265 2.94405 8.57322e-19)
(0.0164766 2.95644 0)
(0.00617882 2.85072 -8.50573e-19)
(0.00613377 3.091 2.0403e-19)
(0.00723876 3.08248 0)
(0.789451 1.82826 -2.24337e-19)
(1.25151 2.50745 6.11861e-19)
(0.771756 1.96818 -1.44299e-18)
(0.0205697 2.98256 -3.55893e-19)
(0.0362561 3.00359 0)
(-0.0330666 2.88011 0)
(-0.0639347 2.08514 3.77835e-21)
(-0.115289 1.98093 9.57419e-22)
(-0.0458654 1.92773 4.57305e-21)
(0.274366 1.35569 7.43934e-19)
(0.214781 0.469101 -5.1224e-19)
(0.0648307 1.96737 5.12438e-19)
(0.137745 1.85535 -6.34876e-19)
(0.177763 1.45756 8.62642e-20)
(0.00178511 3.11904 -1.21534e-18)
(0.0148722 3.11844 1.30763e-18)
(-0.00879496 2.98129 5.54516e-19)
(-0.00363259 2.97771 -4.97523e-19)
(-0.0211608 2.88155 -5.64761e-19)
(0.00870136 3.10018 -1.49992e-18)
(0.00244495 3.10546 1.46748e-18)
(0.25526 0.656529 0)
(0.213391 0.645267 -5.73121e-19)
(0.103679 0.21766 2.57198e-19)
(0.333999 0.864251 7.34516e-19)
(0.176678 0.243537 -1.12692e-18)
(1.17291 0.173473 -3.3723e-20)
(1.18254 0.30858 0)
(1.16102 0.121143 9.42345e-20)
(-0.00393355 2.20021 1.65293e-21)
(0.00504475 2.21029 0)
(0.0227592 1.94945 0)
(0.336863 1.25452 -2.6952e-19)
(0.357982 1.07544 -5.75792e-19)
(0.187869 0.337817 9.99432e-19)
(1.00585 -0.0108845 0)
(1.00765 -0.00767751 2.58339e-19)
(-0.231776 1.50999 0)
(-0.23712 1.42639 0)
(1.0022 0.00350596 1.80183e-21)
(1.00373 0.0094675 5.3014e-19)
(-0.0761845 2.17974 3.73399e-20)
(-0.0523172 2.22007 0)
(0.03689 3.1801 1.65372e-19)
(0.397579 3.49483 0)
(1.1294 0.650254 4.0761e-20)
(1.01299 0.0129953 -2.12955e-21)
(1.02118 -0.0105048 0)
(1.00172 0.000163591 9.43147e-23)
(0.104222 1.35386 0)
(0.149755 2.57549 0)
(0.09435 1.18932 0)
(-0.000134205 2.6191 -1.59253e-19)
(-0.0399818 2.59405 -1.5744e-19)
(1.0059 0.0292755 2.76236e-21)
(1.05961 -0.000658935 0)
(1.08475 0.0153456 0)
(-0.293881 1.94474 0)
(-0.207694 2.49285 0)
(-0.194342 1.13219 0)
(0.275439 1.46355 -3.86313e-19)
(1.01124 -0.00972756 0)
(1.00934 -0.014985 0)
(1.00246 0.000738837 3.29744e-19)
(1.00548 -0.00485427 -3.87873e-19)
(1.00118 -0.00104654 0)
(-0.359833 1.79711 0)
(-0.291805 1.53799 0)
(-0.307594 1.7025 0)
(-0.204495 1.13019 0)
(-0.255062 1.27959 0)
(-0.183486 1.1536 0)
(1.03425 -0.00676461 0)
(1.02089 0.0155813 -1.00786e-21)
(0.78877 1.25522 4.68788e-19)
(1.00225 0.000363456 -3.27927e-19)
(1.0041 0.00525245 3.86629e-19)
(1.00116 0.00203864 0)
(1.0129 0.0101996 3.23172e-19)
(1.00801 0.00825638 -3.97609e-19)
(1.00864 0.0146293 0)
(-0.190019 2.48514 0)
(-0.115162 2.35905 -2.54199e-19)
(-0.119512 2.36811 2.0618e-19)
(1.20207 0.260749 5.40527e-20)
(1.13941 0.0870327 0)
(0.0466903 3.07728 -5.80481e-19)
(0.0663638 2.85263 -4.50885e-20)
(0.143428 3.1945 9.20968e-19)
(0.138177 3.22366 -3.59928e-20)
(0.136363 3.2366 0)
(0.0209524 3.13798 1.32824e-19)
(0.0779469 3.16093 5.67367e-19)
(0.0705266 3.18749 -2.54553e-19)
(0.0239549 3.12914 0)
(0.659998 0.31065 0)
(0.57687 0.370331 0)
(1.10132 0.678572 -1.73724e-19)
(1.09822 0.810189 -5.93191e-20)
(1.15801 0.569437 0)
(1.18754 0.513496 0)
(1.01617 0.0132865 -5.99221e-19)
(1.01497 0.0142598 -1.56094e-21)
(1.02507 -0.0101683 0)
(1.02305 -0.0123605 0)
(1.00653 0.00250362 0)
(1.01042 0.00362516 0)
(1.00436 0.00188929 0)
(1.00976 0.00609025 0)
(1.00792 0.0058058 0)
(1.00452 0.00465792 0)
(0.0935495 1.35158 0)
(0.0881515 1.31751 0)
(0.11833 1.38217 0)
(0.130078 1.40712 0)
(0.146353 2.59814 0)
(0.187745 2.65895 -2.44449e-19)
(0.102238 2.65512 0)
(0.0873256 2.6587 1.9113e-20)
(0.0341193 2.67982 1.45667e-19)
(0.102264 1.14945 0)
(0.0539728 1.02988 0)
(0.0978764 1.24327 0)
(0.0111019 1.20073 0)
(0.0379925 1.98107 2.00653e-19)
(-0.0541885 2.61271 -2.10002e-19)
(-0.0157317 2.65746 -2.51149e-19)
(-0.0345339 2.66037 0)
(-0.0902573 2.63162 4.45236e-19)
(-0.0984724 2.61599 3.00808e-19)
(-0.000215806 2.0369 -1.34929e-19)
(-0.0460912 2.47849 2.92441e-19)
(0.000281341 2.46977 2.97439e-19)
(1.01474 0.0348737 6.0209e-19)
(1.00881 0.0189756 2.62287e-21)
(1.0063 0.0414791 -6.09573e-19)
(0.987617 0.0220123 7.83166e-19)
(1.06053 0.00432911 0)
(1.04683 -0.010381 0)
(1.08417 0.0233483 0)
(1.06781 0.00530921 0)
(1.06418 -0.0052551 0)
(1.12295 0.0762261 0)
(1.09642 0.0383531 0)
(1.09775 0.030441 0)
(-0.178519 2.24499 1.12493e-20)
(-0.317631 2.12135 0)
(-0.239225 2.12523 0)
(-0.226615 2.58397 -1.86904e-19)
(-0.221754 2.54528 5.62565e-21)
(-0.394647 1.9228 -2.12253e-19)
(-0.341487 1.80896 2.13584e-19)
(-0.335604 1.48748 0)
(-0.355339 1.51466 0)
(-0.344654 1.54586 0)
(-0.167587 1.11312 0)
(-0.0705408 0.959519 0)
(0.372006 1.47621 7.27151e-19)
(0.405516 1.48769 2.94212e-19)
(0.59327 2.44569 -1.70647e-19)
(0.405587 2.5389 4.73423e-19)
(0.352804 2.08558 -2.73226e-20)
(1.02087 -0.00841237 0)
(1.01543 -0.00990999 0)
(1.01481 -0.0156061 0)
(1.00765 -0.00142107 0)
(1.00498 -0.00105827 0)
(1.00774 -0.00489944 0)
(1.00921 -0.00385086 0)
(1.01411 -0.00454417 0)
(1.02161 0.0157793 5.76593e-19)
(1.01825 0.0157159 -7.41819e-19)
(1.02207 0.0175817 -5.78536e-19)
(1.01957 0.016291 7.24582e-19)
(0.756811 1.30527 0)
(0.690323 1.35969 5.39818e-19)
(0.866764 1.19951 3.07269e-19)
(0.910268 1.15739 -4.08798e-19)
(1.16044 2.61439 -3.82575e-19)
(0.826768 0.0963381 3.52246e-19)
(1.13961 0.103805 0)
(1.18295 0.186174 -3.97617e-20)
(1.1678 0.158011 -1.56231e-21)
(1.00074 0.129093 0)
(0.13943 2.96347 2.14563e-19)
(0.117379 2.8691 -7.52157e-19)
(0.0291901 2.36814 5.27381e-19)
(0.0941552 0.0289088 -2.24567e-19)
(0.342307 3.42368 -3.95919e-19)
(0.19581 3.31579 0)
(0.23841 3.35815 5.15615e-19)
(0.248454 3.03623 -9.62613e-19)
(0.342987 3.19521 0)
(0.00728126 3.12081 2.94836e-20)
(0.0168382 3.12981 -3.68289e-19)
(0.0154885 3.1258 5.42063e-19)
(0.0367206 3.13991 0)
(0.0352717 3.15099 0)
(1.22019 2.61427 0)
(0.547064 0.84109 -2.98477e-19)
(1.02968 0.983122 -1.64015e-19)
(0.966973 1.05381 0)
(0.813068 0.95728 2.25257e-20)
(1.05249 0.86784 3.02116e-20)
(0.374132 0.417775 -5.97607e-19)
(0.702405 0.323334 -2.24464e-20)
(0.690606 0.253591 2.68491e-19)
(0.591731 0.399261 2.04088e-20)
(0.511918 0.377617 -8.2969e-19)
(0.670243 0.351703 0)
(0.693199 0.433255 4.44529e-19)
(0.699545 0.430805 0)
(0.628703 0.386675 0)
(0.610941 0.319051 0)
(0.779956 0.613583 1.89744e-19)
(1.19861 0.278863 -5.58679e-20)
(1.19358 0.414549 0)
(1.20801 0.363317 0)
(0.76857 0.202713 3.9597e-19)
(0.825257 0.541483 -2.2893e-19)
(0.73183 0.517509 -3.82018e-19)
(0.922334 0.418898 -3.7918e-19)
(1.02001 0.0143953 3.98446e-19)
(1.01794 0.01413 -4.04281e-19)
(1.01598 0.0155874 0)
(1.03559 -0.00640942 0)
(1.02936 -0.0088715 -3.69143e-19)
(1.02705 -0.012685 3.65359e-19)
(1.02517 0.0093265 0)
(1.02379 0.0129716 0)
(1.01145 0.00390211 0)
(1.01435 0.00880335 0)
(1.0151 0.00367121 0)
(1.01412 0.00272709 0)
(0.068259 1.33986 0)
(0.0594525 1.28947 0)
(0.153362 1.33726 2.73138e-19)
(0.258595 1.461 2.18443e-19)
(0.150267 1.43659 4.64018e-19)
(0.17934 1.44368 -2.47712e-19)
(0.172729 1.3735 0)
(0.123665 1.59124 2.10678e-19)
(0.115784 1.56425 0)
(0.350296 2.03989 3.97032e-20)
(0.351538 2.37068 3.01332e-19)
(0.183725 1.44 -1.83832e-19)
(0.260383 1.36289 1.60165e-19)
(0.192375 1.35385 1.28267e-19)
(0.267722 1.30137 2.40237e-19)
(0.234302 1.57442 -1.39457e-19)
(0.253936 1.61665 -1.4904e-19)
(0.0506224 2.27412 7.87554e-20)
(0.0394925 2.67054 0)
(0.0665944 2.40798 -1.22069e-19)
(0.0484864 2.42626 0)
(0.0730623 2.67102 -2.23853e-20)
(0.0453981 2.69866 0)
(0.154594 1.4764 3.10056e-19)
(0.0818767 1.52932 0)
(0.0789551 1.39552 0)
(0.165461 1.3867 -3.49547e-19)
(-0.0042607 2.64528 -2.57667e-20)
(0.0203987 2.69716 -1.95247e-19)
(0.00797494 2.71706 -1.31808e-21)
(0.0983711 2.00767 -2.71889e-19)
(0.101497 1.73126 9.95776e-20)
(0.0206734 1.01332 0)
(0.00918146 0.917899 0)
(0.0308294 1.58236 -3.59221e-19)
(0.0612472 1.44228 -3.66275e-19)
(0.0671492 1.54848 4.60896e-19)
(0.0334006 1.5967 0)
(-0.270011 2.412 7.78169e-19)
(-0.241088 2.59487 -3.01738e-19)
(-0.256706 2.57103 8.69585e-20)
(0.0482398 2.02092 3.29738e-19)
(-0.154738 2.59071 1.3125e-19)
(-0.0691905 2.52125 -3.74711e-19)
(1.02066 0.0202229 -3.93159e-19)
(1.0179 0.0254663 3.95157e-19)
(1.01476 0.0168831 0)
(1.01871 0.0596214 5.59337e-19)
(0.996862 0.0512707 -6.48687e-19)
(0.960444 0.03408 7.40735e-19)
(1.01717 0.0903058 -7.33197e-20)
(1.04189 -0.0065708 0)
(1.04929 -0.00295424 3.38498e-19)
(1.03811 -0.0107698 -3.3893e-19)
(1.06619 0.0323433 -1.91746e-20)
(1.06008 0.0151658 1.6881e-19)
(1.06234 0.044371 0)
(1.05782 0.0375418 -6.19473e-20)
(1.03493 0.0356824 0)
(1.02895 0.0332104 0)
(1.02748 0.0124444 0)
(1.02436 0.0152627 0)
(1.04076 0.026324 1.28563e-19)
(1.03805 0.0212129 -2.90145e-19)
(1.05234 0.0245277 -1.3294e-19)
(1.04982 0.0245116 -1.49745e-19)
(1.07273 0.0523314 2.78272e-19)
(1.08475 0.0446216 0)
(1.09204 0.0919897 0)
(-0.299459 2.39668 2.57946e-19)
(-0.33622 2.15912 1.775e-20)
(-0.325528 2.20706 0)
(-0.238964 2.41056 -2.5532e-19)
(-0.204702 2.29009 -2.87967e-20)
(-0.2135 2.3663 4.67116e-20)
(-0.150073 2.63863 -2.47968e-19)
(-0.205779 2.61246 2.37764e-20)
(-0.199798 2.59811 -1.12767e-19)
(-0.210765 2.6158 1.63754e-19)
(-0.18278 2.59041 -4.56235e-21)
(-0.403284 1.72553 -2.04429e-20)
(-0.358623 1.95422 -3.86513e-19)
(0.362442 1.40913 -3.56233e-19)
(0.359126 1.35138 -3.19906e-19)
(0.638709 1.40654 -5.22241e-19)
(0.506654 1.4724 -2.84635e-19)
(0.556186 1.44812 0)
(0.589254 2.41996 1.3945e-19)
(0.656425 2.4095 2.45881e-19)
(0.411103 2.515 7.99535e-20)
(0.404872 2.55665 -2.46457e-19)
(0.515246 2.5121 3.25878e-19)
(0.54702 2.45919 0)
(0.487969 2.50818 -3.90724e-19)
(0.247745 2.587 6.9146e-19)
(0.35332 2.56284 -8.07862e-20)
(0.285314 2.64626 -1.02194e-18)
(0.931989 2.38472 3.34506e-19)
(0.828827 2.38486 0)
(1.01097 0.000109349 1.31755e-20)
(1.01513 -0.0055131 -1.06737e-20)
(1.01742 -0.00363739 -1.93876e-19)
(1.01474 -0.00106316 1.95011e-19)
(1.01221 0.000748588 0)
(0.625187 1.27453 0)
(0.64129 1.16142 0)
(0.744341 1.06548 0)
(0.634 1.13296 0)
(1.18766 2.63079 5.67762e-20)
(1.07787 2.37319 0)
(0.845097 2.20962 -6.93712e-22)
(0.827432 2.4718 0)
(0.921297 2.55835 -5.97494e-20)
(0.957883 2.51276 0)
(0.838 0.146272 0)
(0.806166 0.137931 9.98052e-20)
(0.926038 0.121829 5.3199e-19)
(0.855655 0.119301 -2.09295e-19)
(0.838864 0.0615774 -6.29723e-19)
(1.05497 0.221018 -3.76131e-19)
(0.97311 0.273758 -1.57432e-20)
(0.908224 0.270362 4.8884e-19)
(0.989488 0.202265 3.77458e-19)
(0.943381 0.161106 -6.82175e-19)
(0.915221 0.170301 8.72492e-20)
(0.941435 0.232774 -1.75836e-19)
(0.91927 0.1925 0)
(0.984866 0.162246 -3.30615e-19)
(1.03232 0.169264 0)
(1.02689 0.195421 0)
(1.08783 0.112239 1.22356e-19)
(1.05858 0.161167 -1.32694e-20)
(1.04932 0.224803 -1.9353e-19)
(1.08294 0.194925 0)
(1.02584 0.0401803 3.00232e-19)
(1.04592 0.0490726 3.62462e-19)
(1.03678 0.0366375 -2.98527e-19)
(1.04827 0.0549965 -2.43617e-19)
(1.02293 0.0629113 -3.93691e-19)
(0.985975 0.131658 0)
(1.00298 0.0851609 0)
(0.972482 0.0485491 -2.66829e-19)
(0.926542 0.0641344 1.08931e-19)
(1.04044 0.0884346 3.40051e-19)
(1.06285 0.112549 -3.65469e-19)
(1.0667 0.140908 3.31692e-19)
(1.03039 0.128578 0)
(1.071 0.0988072 0)
(1.05842 0.0784799 -1.51008e-19)
(1.05095 0.0846448 -2.7456e-19)
(0.587715 1.09117 -4.75901e-20)
(0.620545 1.42381 1.49531e-19)
(1.16086 2.74708 3.43547e-20)
(1.22707 3.08679 -5.57321e-20)
(1.25191 2.72922 4.23434e-19)
(1.28296 2.71268 -2.78695e-19)
(1.21125 2.35337 -9.24051e-21)
(1.21407 2.99123 1.35637e-19)
(1.23291 2.95672 -1.23288e-19)
(1.21845 3.24051 -2.42815e-19)
(1.37968 2.9732 3.35953e-19)
(1.37121 2.89129 0)
(0.545798 0.848086 -2.08259e-20)
(0.144752 1.26661 4.12473e-19)
(0.525159 0.475097 3.92334e-19)
(0.361981 0.233038 4.26111e-19)
(0.530929 0.406718 4.66382e-19)
(0.54054 0.491519 -7.41228e-19)
(0.542537 0.495021 6.07483e-19)
(0.497001 0.423161 -2.36891e-19)
(0.429038 0.364021 5.43984e-19)
(0.769847 0.25783 6.83668e-19)
(0.730248 0.28954 0)
(0.72674 0.228786 1.01286e-20)
(0.712884 0.51779 2.2962e-19)
(0.681576 0.491409 -8.45131e-19)
(0.602589 0.488339 1.65023e-20)
(0.619855 0.476265 0)
(0.672305 0.732979 1.998e-19)
(0.810995 0.766406 1.26818e-19)
(0.740888 0.84655 -1.54627e-19)
(0.854047 0.800173 -4.56077e-20)
(0.884521 0.837633 3.6985e-21)
(0.893071 0.839983 -3.78644e-21)
(0.82009 0.641472 -3.20343e-19)
(0.899118 0.693395 4.2364e-20)
(0.955366 0.704151 0)
(0.944527 0.679057 -5.24298e-20)
(0.999176 0.315091 9.3584e-20)
(1.11122 0.287461 6.10921e-20)
(1.03926 0.257382 1.53732e-19)
(0.978328 0.34813 -2.02969e-19)
(1.02319 0.414489 0)
(1.07827 0.403196 0)
(0.896595 0.351989 5.08372e-21)
(0.837176 0.287205 0)
(0.855696 0.275118 2.44695e-19)
(0.891973 0.277197 -6.37501e-21)
(0.914057 0.4219 1.04455e-18)
(0.871089 0.484166 2.67359e-19)
(0.875961 0.448976 -3.19431e-19)
(0.806852 0.43601 -3.42864e-19)
(0.789545 0.434487 2.23696e-19)
(0.758266 0.419812 -2.19635e-19)
(1.0279 -0.000616253 3.17595e-19)
(1.02021 -4.1474e-05 0)
(1.01859 0.000872819 2.08476e-19)
(1.02106 -0.00216 -3.31129e-21)
(1.02218 0.00416606 2.28678e-19)
(1.02036 0.0107549 -4.79605e-19)
(1.02139 0.0101635 0)
(1.02095 0.0103608 -1.00796e-19)
(1.01606 0.00739977 2.52855e-19)
(1.01681 0.0101317 -1.26364e-19)
(1.01747 0.00943674 9.29576e-20)
(0.0711589 1.30092 0)
(0.0768072 1.35864 0)
(0.0538108 1.32343 0)
(0.039581 1.25675 0)
(0.0635265 1.37564 -5.88426e-19)
(0.0865396 1.34156 1.84244e-19)
(0.105336 1.51075 1.29154e-19)
(0.0942243 1.34007 -1.40798e-19)
(0.0433535 1.46163 3.60238e-19)
(0.037243 1.44923 -2.78383e-19)
(0.0543736 1.36381 -4.7537e-21)
(0.0542045 1.3683 -4.61055e-19)
(0.0548274 1.34724 5.28041e-20)
(0.0429095 1.39191 -4.8045e-20)
(0.101949 2.38949 1.38613e-19)
(0.0965366 2.42738 0)
(0.164607 2.06539 -1.12444e-20)
(0.101026 1.70943 -8.17892e-20)
(0.228193 2.06361 9.52378e-21)
(0.209741 2.45557 0)
(0.269481 2.409 -2.03538e-19)
(0.301827 2.4098 1.45164e-19)
(0.227437 2.02357 3.62359e-20)
(0.146922 2.18658 2.24579e-20)
(0.146113 2.30847 0)
(0.0207384 1.87055 3.68293e-19)
(-0.00776749 2.39555 3.66601e-19)
(-0.0362671 2.15858 0)
(0.00205055 2.46315 -1.29619e-20)
(0.0100956 2.31215 -1.67298e-19)
(0.148093 1.43442 -6.93431e-20)
(0.122168 1.31674 1.19617e-18)
(0.0849102 1.39117 -3.80821e-19)
(0.152762 1.47749 -3.49649e-19)
(0.153477 1.51388 0)
(0.0719412 1.32328 0)
(-0.0984897 1.01851 -4.38577e-19)
(-0.0670684 1.18045 1.41645e-19)
(0.0129153 1.23967 0)
(-0.0445779 0.963477 -3.24063e-19)
(-0.0510746 0.915369 6.4419e-19)
(1.04025 0.0106064 0)
(1.04657 0.00648776 -3.17953e-20)
(1.03894 0.0194633 -2.31647e-19)
(1.04754 0.0160942 0)
(1.05158 0.0157225 0)
(1.03518 0.0101587 -6.25065e-21)
(1.03113 0.0106436 3.77847e-19)
(1.03093 0.0149537 4.58284e-19)
(1.02613 0.0188868 0)
(1.02371 0.0197104 0)
(1.03486 0.0219789 2.32592e-19)
(1.02577 0.0249943 0)
(1.02569 0.0234914 0)
(-0.186385 2.30311 0)
(-0.329274 2.07266 -4.68982e-20)
(-0.291785 2.19866 -1.76159e-19)
(-0.0610422 1.24352 0)
(-0.270073 1.86685 -3.15792e-19)
(-0.287097 1.60104 1.48417e-19)
(-0.187503 1.24612 0)
(0.393178 1.69534 0)
(0.359465 1.27755 5.21822e-19)
(0.302137 1.3362 0)
(0.413887 1.27422 -3.77521e-19)
(0.45904 1.44516 0)
(0.439324 1.38555 3.25992e-19)
(1.03049 2.70182 -6.5497e-21)
(0.955515 2.41793 -4.44497e-19)
(0.899937 2.18189 4.7848e-19)
(0.840962 2.37795 1.43318e-19)
(0.844408 2.51603 0)
(0.913441 2.50968 0)
(0.915216 2.3785 0)
(0.893176 2.36045 -5.48146e-19)
(0.693082 2.49088 -8.25042e-20)
(0.801259 2.48221 -2.87211e-20)
(0.812935 2.4536 2.19794e-20)
(0.6901 2.38806 0)
(0.793916 2.38698 0)
(0.753426 2.39708 -2.541e-19)
(0.769867 2.50519 0)
(0.604955 1.08334 0)
(0.493747 0.93725 -1.06122e-19)
(0.557138 0.965292 -7.70066e-21)
(0.527751 1.06917 0)
(0.529835 1.02161 1.61334e-19)
(0.763985 0.865397 -1.51841e-20)
(0.770649 1.00371 0)
(0.745939 0.960348 -1.36635e-20)
(0.639162 1.02275 0)
(0.642077 0.937266 0)
(1.16594 2.76925 -1.25752e-21)
(1.14467 2.83273 7.98437e-20)
(0.936955 2.35769 -2.07377e-19)
(0.903655 2.33558 1.05556e-20)
(1.12984 2.74386 0)
(1.0816 2.71495 -1.46279e-20)
(1.08903 2.49564 -1.26842e-19)
(0.984326 2.23704 -3.04e-20)
(0.50048 1.37249 0)
(0.512158 1.08184 4.20036e-20)
(0.546303 1.15001 0)
(0.860562 0.215306 0)
(0.814851 0.169427 0)
(0.772713 0.151025 0)
(0.852448 0.222297 -3.84972e-19)
(0.789963 0.216672 2.34994e-19)
(0.935744 0.0524858 -2.2383e-19)
(0.951391 0.100212 0)
(0.925495 0.105721 9.89622e-20)
(0.879681 0.0833246 4.02085e-19)
(0.863299 0.0457601 -2.48446e-19)
(1.16605 3.36577 -9.27638e-19)
(1.21353 3.28503 0)
(1.16456 3.39345 -1.84196e-18)
(0.651076 3.55388 1.5781e-18)
(0.87732 3.12024 3.10724e-19)
(0.521628 0.864406 3.12635e-19)
(0.443152 0.862664 0)
(0.345347 0.50824 -9.73605e-20)
(0.447603 0.689023 -4.84045e-19)
(0.528189 0.478209 -1.29913e-19)
(0.505452 0.524314 1.50789e-19)
(0.648465 0.543109 3.17289e-19)
(0.678959 0.56539 0)
(0.63242 0.622559 0)
(0.587871 0.563425 0)
(0.9508 0.588888 -2.35686e-20)
(0.873005 0.532529 -2.59232e-19)
(0.898556 0.56571 1.51767e-19)
(0.932376 0.50151 -1.93965e-19)
(1.03499 0.473445 0)
(1.04406 0.561602 -2.48354e-20)
(0.833128 0.387957 -4.99333e-19)
(0.837802 0.372965 7.6319e-19)
(0.787828 0.382194 3.90881e-19)
(0.780765 0.35249 -4.2893e-19)
(0.835973 0.312221 -3.21175e-19)
(0.791216 0.307872 3.94836e-19)
(1.02653 0.00524745 -2.36896e-19)
(1.02621 0.00550063 4.78909e-19)
(1.02921 -0.000867099 3.04404e-19)
(1.033 8.28158e-05 -3.66741e-19)
(1.03318 0.00829958 0)
(1.02974 0.0084994 -5.91466e-19)
(0.0358638 1.65046 -4.64614e-20)
(0.0355178 1.57009 0)
(0.0856895 1.70044 -4.09012e-19)
(0.0887448 1.68387 3.78319e-19)
(0.090789 1.52575 -2.42271e-19)
(0.0754748 1.48909 0)
(0.0786532 1.98922 0)
(0.0635726 1.54742 1.55821e-19)
(-0.0317551 1.48259 -1.4081e-19)
(-0.141153 1.80784 -1.45848e-20)
(-0.130174 2.23947 2.75214e-19)
(-0.100247 2.21711 4.11098e-19)
(0.493982 1.38007 2.87515e-19)
(0.488472 1.38575 3.35137e-19)
(0.43601 1.27346 3.37806e-19)
(0.431716 1.29268 -1.94892e-20)
(0.618745 1.28743 0)
(0.535935 1.37422 4.51625e-19)
(0.550677 1.38341 -4.39552e-19)
(0.442125 1.26189 -3.25325e-19)
(0.496056 1.21732 0)
(0.550908 1.18715 0)
(0.659449 2.44944 1.21253e-19)
(0.669353 2.47716 6.65686e-19)
(0.717992 2.49342 -4.5799e-19)
(0.623063 2.47587 -1.35869e-19)
(0.562428 2.56867 1.32205e-19)
(0.512365 2.54062 -3.7905e-19)
(0.970232 2.38169 -2.60771e-19)
(1.01095 2.39982 0)
(0.914618 2.16233 -3.27966e-19)
(1.05026 2.69548 0)
(1.05235 2.68256 0)
(0.61946 2.27982 1.54745e-19)
(1.04685 3.16735 4.04965e-19)
(0.917793 3.03687 -3.39329e-19)
(0.286286 0.931937 0)
(0.327904 0.794478 -1.91359e-19)
(0.488832 0.750755 -6.98869e-19)
(0.393895 2.02746 0)
(0.469115 2.78767 -2.16324e-19)
(0.427143 2.55235 0)
(0.68214 0.684527 -4.17829e-19)
(0.756393 0.676486 5.48137e-19)
(0.774503 0.623753 3.7084e-19)
(0.660658 0.653773 5.90749e-20)
(0.710553 0.601775 -2.43035e-19)
(1.00921 2.77201 -3.07914e-19)
(1.04417 2.827 1.92879e-19)
(0.645091 2.16174 2.06872e-19)
(0.605551 1.72651 -1.71225e-19)
(0.706159 1.91744 3.51681e-21)
(0.995132 2.45561 -7.74673e-20)
(0.997997 2.44892 -6.77614e-20)
(0.670004 1.8573 1.92733e-21)
(0.462875 1.3482 2.62944e-20)
)
;

boundaryField
{
    wall-4
    {
        type            noSlip;
    }
    velocity-inlet-5
    {
        type            fixedValue;
        value           uniform (1 0 0);
    }
    velocity-inlet-6
    {
        type            fixedValue;
        value           uniform (0 3 0);
    }
    pressure-outlet-7
    {
        type            zeroGradient;
    }
    wall-8
    {
        type            noSlip;
    }
    frontAndBackPlanes
    {
        type            empty;
    }
}


// ************************************************************************* //
