/*--------------------------------*- C++ -*----------------------------------*\
| =========                 |                                                 |
| \\      /  F ield         | OpenFOAM: The Open Source CFD Toolbox           |
|  \\    /   O peration     | Version:  2412                                  |
|   \\  /    A nd           | Website:  www.openfoam.com                      |
|    \\/     M anipulation  |                                                 |
\*---------------------------------------------------------------------------*/
FoamFile
{
    version     2.0;
    format      ascii;
    arch        "LSB;label=32;scalar=64";
    class       surfaceScalarField;
    location    "4";
    object      phi;
}
// * * * * * * * * * * * * * * * * * * * * * * * * * * * * * * * * * * * * * //

dimensions      [0 3 -1 0 0 0 0];

oriented        oriented;

internalField   nonuniform List<scalar> 
51
(
2.8779
3.06459
-0.186692
3.06459
-3.53924
-0.180032
-3.53924
3.18331
-0.118714
3.18331
-3.34753
-0.191717
3.34753
-0.164219
-5.48634
-5.67165
-4.698
-3.83633
-1.65001
-4.02805
-4.68021
4.56149
-6.88153
7.68245
-0.800922
3.59934
5.36589
-0.908135
-4.45776
-1.34649
-3.33371
-4.67476
3.32827
-1.07542
3.5204
-5.54733
4.6392
-2.13512
5.46339
-3.45021
-0.577839
3.61443
0.947061
6.41045
6.48109
-0.491729
5.13092
-5.91872
5.34088
3.69087
0.432925
)
;

boundaryField
{
    wall-4
    {
        type            calculated;
        value           nonuniform List<scalar> 0();
    }
    velocity-inlet-5
    {
        type            calculated;
        value           nonuniform List<scalar> 0();
    }
    velocity-inlet-6
    {
        type            calculated;
        value           nonuniform List<scalar> 0();
    }
    pressure-outlet-7
    {
        type            calculated;
        value           nonuniform List<scalar> 0();
    }
    wall-8
    {
        type            calculated;
        value           uniform 0;
    }
    frontAndBackPlanes
    {
        type            empty;
    }
    procBoundary23to18
    {
        type            processor;
        value           nonuniform List<scalar> 3(-2.8779 -4.59582 -10.4809);
    }
    procBoundary23to21
    {
        type            processor;
        value           nonuniform List<scalar> 3(-0.305755 -7.28201 2.02333);
    }
    procBoundary23to22
    {
        type            processor;
        value           nonuniform List<scalar> 4(3.71928 5.30631 10.3697 4.1238);
    }
}


// ************************************************************************* //
