/*--------------------------------*- C++ -*----------------------------------*\
| =========                 |                                                 |
| \\      /  F ield         | OpenFOAM: The Open Source CFD Toolbox           |
|  \\    /   O peration     | Version:  2412                                  |
|   \\  /    A nd           | Website:  www.openfoam.com                      |
|    \\/     M anipulation  |                                                 |
\*---------------------------------------------------------------------------*/
FoamFile
{
    version     2.0;
    format      ascii;
    arch        "LSB;label=32;scalar=64";
    class       volVectorField;
    location    "2";
    object      U;
}
// * * * * * * * * * * * * * * * * * * * * * * * * * * * * * * * * * * * * * //

dimensions      [0 1 -1 0 0 0 0];

internalField   nonuniform List<vector> 
38
(
(0.754708 0.974357 2.36104e-19)
(0.820328 1.06441 -3.01675e-19)
(0.661596 0.948878 0)
(0.81883 1.19032 4.1739e-20)
(0.723527 1.07848 0)
(0.760975 1.11807 -5.6297e-20)
(0.581571 1.16314 0)
(0.677515 1.18275 1.09016e-19)
(0.68492 1.29105 8.07166e-19)
(0.743507 1.24549 -4.77975e-19)
(0.718829 1.13268 9.03902e-19)
(0.541077 1.31839 0)
(0.635676 1.31079 -1.793e-18)
(0.603467 1.21095 8.01625e-19)
(0.962817 1.60461 9.28001e-19)
(0.928713 1.84319 0)
(0.551415 1.46055 1.08538e-18)
(0.960587 1.5734 4.21262e-20)
(0.934626 1.53691 0)
(0.623456 1.56513 7.55326e-21)
(0.562645 1.52028 0)
(0.984641 1.71376 -8.18626e-19)
(0.971407 1.83256 6.44095e-20)
(1.03285 1.68719 -7.59757e-21)
(0.618431 1.50709 -2.27852e-20)
(0.58196 1.46538 -1.25954e-18)
(0.63069 1.44841 1.59247e-18)
(0.824795 1.59979 -4.53406e-19)
(0.670641 1.59279 -1.95625e-19)
(0.794782 1.53571 0)
(0.721469 1.51542 2.60499e-19)
(0.894344 1.51646 -3.88582e-19)
(0.833007 1.50304 -2.24594e-20)
(0.68695 1.4741 -8.4825e-19)
(0.785261 1.49268 0)
(0.74654 1.47208 -8.62232e-19)
(0.670478 1.49088 0)
(0.661902 1.4832 0)
)
;

boundaryField
{
    wall-4
    {
        type            noSlip;
    }
    velocity-inlet-5
    {
        type            fixedValue;
        value           nonuniform List<vector> 0();
    }
    velocity-inlet-6
    {
        type            fixedValue;
        value           nonuniform List<vector> 0();
    }
    pressure-outlet-7
    {
        type            zeroGradient;
    }
    wall-8
    {
        type            noSlip;
    }
    frontAndBackPlanes
    {
        type            empty;
    }
    procBoundary18to19
    {
        type            processor;
        value           nonuniform List<vector> 4((0.851315 1.84698 6.08618e-19) (0.858659 1.96585 -3.17148e-19) (0.761496 1.65898 -3.55703e-19) (0.660596 1.60766 6.3568e-19));
    }
    procBoundary18to20
    {
        type            processor;
        value           nonuniform List<vector> 3((0.659833 1.34808 -9.27278e-20) (0.659833 1.34808 -9.27278e-20) (0.964657 2.02754 3.7302e-20));
    }
    procBoundary18to21
    {
        type            processor;
        value           uniform (0.589184 1.56448 0);
    }
    procBoundary18to23
    {
        type            processor;
        value           nonuniform List<vector> 3((0.525342 1.21736 -3.71036e-19) (0.556469 1.46441 0) (0.550395 1.5134 -7.68e-19));
    }
}


// ************************************************************************* //
