/*--------------------------------*- C++ -*----------------------------------*\
| =========                 |                                                 |
| \\      /  F ield         | OpenFOAM: The Open Source CFD Toolbox           |
|  \\    /   O peration     | Version:  2412                                  |
|   \\  /    A nd           | Website:  www.openfoam.com                      |
|    \\/     M anipulation  |                                                 |
\*---------------------------------------------------------------------------*/
FoamFile
{
    version     2.0;
    format      ascii;
    arch        "LSB;label=32;scalar=64";
    class       volScalarField;
    location    "21";
    object      p;
}
// * * * * * * * * * * * * * * * * * * * * * * * * * * * * * * * * * * * * * //

dimensions      [0 2 -2 0 0 0 0];

internalField   nonuniform List<scalar> 
918
(
0.218251
0.900471
0.0103781
0.217293
-0.00192929
0.867553
-0.844645
0.393761
0.198316
-0.473217
-0.150007
0.18788
0.728254
0.495221
-1.47342
-0.00499976
0.350139
-0.728867
0.197015
-0.0043668
0.468426
0.205006
0.208018
0.198586
0.258289
0.483036
0.609064
0.00235703
-0.000741891
-0.00423591
0.00436954
-0.0101521
-0.00768747
0.751173
0.802285
0.824955
0.167069
-0.00724905
-0.695211
-0.771274
-0.756272
-0.894098
0.383137
0.388052
-0.498939
0.395821
0.411427
0.185857
0.197585
0.19842
0.199797
0.198653
0.200073
0.156841
-0.46613
-0.490671
-0.469119
-0.473161
-0.173763
-0.20205
-0.257316
-0.115189
-0.0875306
0.123293
0.184834
0.182714
0.192704
0.202527
0.84002
0.811904
0.83804
0.75187
0.768294
0.706185
0.678659
0.515097
0.536808
0.481409
0.468551
-1.91755
-2.89215
-0.870666
-0.611318
0.000585323
-0.0085252
-0.0100803
0.336493
0.343276
0.347944
0.362077
0.74712
-0.718856
-0.863679
0.197201
0.195915
0.204443
0.205129
0.201115
0.200232
0.00542398
0.00576491
-0.0153042
-0.00187278
-0.00730493
0.452165
0.445754
0.199138
0.196198
0.210394
0.232722
0.221606
-0.0334916
0.268543
0.289538
0.291372
0.464643
0.463395
0.470487
0.582661
0.546062
0.646103
0.669418
0.0125954
0.0037212
-0.0121073
-0.00861416
-0.0117774
0.163356
0.156543
0.180559
0.170682
0.172976
-0.0910778
-0.226513
0.0765366
0.0998349
-0.60243
-0.670115
-0.777615
-0.792146
-0.901708
0.217398
0.373445
0.37605
-0.517075
-0.433056
-0.578615
-0.358
-0.428041
0.176496
0.183166
0.178333
0.193402
0.188082
0.189979
0.201737
0.198822
0.200415
0.198205
0.319534
0.090574
0.0603808
-0.588699
-0.490544
-0.574575
-0.475128
-0.443999
-0.150982
-0.151985
-0.17468
-0.125749
-0.419737
-0.321041
-0.369511
-0.0588603
-0.0413574
0.116026
0.107178
0.133526
0.139481
0.17689
0.177585
0.180509
0.1785
0.629332
0.651826
0.659275
0.63287
-3.90549
-6.73295
-0.276861
-0.133505
0.0015371
0.00322102
0.00254739
0.00596853
0.00243002
0.000149434
-0.0566186
-0.0416385
-0.014394
-0.0227729
0.323696
0.327121
0.66326
0.659028
0.650761
0.612639
0.185246
0.187347
0.192795
0.188682
-0.018639
0.00139202
-0.00870549
0.413325
0.432319
0.428822
-0.0688385
-0.155471
0.0129356
0.0399234
0.310088
0.294112
0.310984
0.355949
0.3933
0.676893
0.695211
0.693441
0.701828
0.745771
0.762101
0.727553
0.14411
0.153494
0.148773
0.184248
0.181729
0.182897
0.177362
0.179408
0.176533
-0.380449
-0.767808
0.166872
0.181935
0.142751
0.151214
0.293758
0.373856
0.358227
0.365033
0.369647
-0.294086
-0.35841
0.01127
-0.0359171
0.065276
0.0964698
0.0804416
0.600627
0.560732
0.610804
0.58422
0.545432
0.571824
-0.719711
-2.25101
-1.35175
0.231694
0.037189
0.128883
-0.0962164
-0.0985909
-0.0822356
0.641319
0.719453
0.355278
0.509369
0.532674
0.431338
0.462244
0.519971
0.444132
0.479791
0.515344
0.494365
0.181158
0.171174
0.156733
0.454758
0.510088
-0.181704
-0.232017
-0.285725
-0.137501
-0.0609888
-0.0940327
0.690527
0.574443
0.653181
0.196007
0.196672
0.00990249
0.0139309
0.200505
0.200447
0.005764
0.000597955
0.108896
-1.18516
-0.191631
0.18874
0.179616
0.19623
-0.436126
0.0803646
-0.208655
-0.183265
0.0303812
0.186344
0.132935
0.0998262
0.00586452
0.00389035
-0.0123019
-0.530514
0.193628
0.191953
0.19577
0.196801
0.197464
0.00498166
0.00586797
0.00451536
-0.0059494
0.000717466
-0.00198245
0.161757
0.176693
-0.492804
0.195774
0.19798
0.197683
0.190634
0.196364
0.194616
0.00663519
0.00167171
-0.00666668
-0.0820873
0.0326351
0.365558
0.472756
0.320372
0.0912144
-0.153741
0.26124
0.329856
0.227337
0.393732
0.360545
0.382521
-0.131672
-0.277466
-0.121466
-0.176593
0.186736
0.18542
0.177809
0.175048
0.191376
0.189503
0.193735
0.190615
0.193534
0.195141
-0.443304
-0.451496
-0.424221
-0.477264
0.0315457
0.283816
-0.0476996
0.0424233
-0.144138
-0.16955
-0.122083
-0.292438
-0.336586
-0.362485
-0.0363663
-0.140016
-0.205623
0.0492317
-0.0608117
-0.258281
-0.119135
-0.20383
0.180749
0.178062
0.186572
0.19322
0.140809
0.14249
0.115277
0.131546
0.119216
0.0644253
0.0975323
0.0752618
0.00688642
0.00780655
0.00493773
0.00736076
0.00173835
0.00533973
0.00741866
0.01087
4.21249e-05
0.00137132
-0.0127324
-0.00382915
-0.501517
-0.61174
0.640039
0.602702
-0.208388
0.182839
0.189267
0.18607
0.19099
0.193879
0.194623
0.192419
0.189148
0.177682
0.179694
0.175444
0.176231
-0.435606
-0.569921
-0.392806
-0.455977
-0.200597
0.300619
0.0452832
-0.0138751
-0.0177791
0.191996
0.586998
0.395391
0.4248
0.451615
-0.683874
-0.280695
-0.613335
0.00496742
-0.176288
0.364817
0.416221
0.438121
0.384957
0.334268
-0.45458
0.194578
-0.373607
-0.331625
-0.143807
-0.242667
0.411082
0.344767
0.350142
0.373277
0.396834
0.350081
0.328499
0.325927
0.363544
0.367646
0.165922
-0.0499566
-0.0956299
-0.131494
0.332993
0.205127
0.259252
0.178354
0.181486
0.184384
0.182888
0.166421
0.173363
0.16923
0.174641
0.177354
0.186926
0.18694
0.182568
0.184743
-0.448211
-0.464243
-0.410823
-0.456258
-0.472095
-0.514126
-0.420562
-0.224152
-0.285315
-0.0643422
0.0229006
-0.25608
-0.407051
-0.368215
-0.354939
-0.122402
-0.0921599
-0.438264
-0.172961
-0.266242
-0.320319
-0.0687156
-0.0513897
-0.32812
-0.410954
-0.443232
-0.346058
-0.214041
-0.195597
-0.216399
-0.0799376
-0.161615
-0.0991181
-0.0544451
-0.500862
-0.501779
-0.486798
-0.500398
0.00690039
0.0048032
0.00247048
-0.0236033
-0.0130165
-0.0168127
0.175853
0.175856
0.175828
0.189498
0.201461
0.216748
0.18278
0.15998
0.15258
0.15462
0.13076
0.139006
0.135614
0.147708
0.165489
0.1732
0.172464
0.174518
0.15901
0.159569
0.149346
0.153106
0.131549
0.114571
0.104725
0.0073537
0.005663
0.00522633
0.00374998
0.0103019
0.00917148
-0.00248687
0.00666145
0.000825755
0.00378357
-0.0190275
0.0121776
0.00709406
-0.423625
-0.353888
-0.52088
-0.553641
-0.621395
0.553993
0.663783
0.491286
0.27543
0.274323
0.497114
0.592512
0.25816
0.42489
0.458424
0.195774
0.481371
0.187695
0.186957
0.184389
0.184022
0.185346
-0.345816
-0.249462
-0.236661
-0.185679
-0.0710967
0.042771
-0.0433697
-0.165932
-0.0259206
-0.0102167
0.295383
0.310311
0.254222
0.280363
0.280577
0.106675
0.181531
0.235399
0.192455
0.23426
0.256103
0.218429
0.24782
0.19471
0.15443
0.153648
0.101229
0.120892
0.0988276
0.0819093
0.177172
0.156853
0.165462
0.159228
0.1779
0.205689
0.200588
0.224034
0.237194
0.164122
0.126882
0.135037
0.16139
0.126262
0.1386
0.152514
-0.138892
-0.237397
-0.148188
-0.441642
-0.347475
-0.36349
-0.408893
-0.374457
-0.0878817
-0.79206
-0.756815
-1.39517
0.129978
0.616963
0.365086
0.337384
0.394844
0.371339
0.375132
0.408046
0.41352
0.323441
0.336224
0.343127
0.292303
0.317033
0.348193
0.343939
0.175132
0.0572718
0.0459921
0.0121261
-0.107547
-0.0779101
0.122554
0.0464251
-0.0248411
-0.0181577
0.141671
0.0359372
0.0976676
0.135519
0.0681976
0.0275764
0.222111
0.290604
0.281032
0.253513
0.168973
0.1812
0.205863
0.242334
0.267839
0.301868
0.1744
0.179971
0.181229
0.178886
0.176404
0.178928
0.178847
0.181451
0.182378
0.185049
0.184111
-0.408992
-0.455867
-0.478897
-0.436488
-0.486895
-0.456331
-0.334406
-0.381233
-0.535615
-0.549536
-0.499937
-0.479043
-0.480695
-0.491097
-0.275891
-0.252579
-0.219341
-0.288955
-0.0485219
0.0911411
0.143939
0.0204554
-0.0616626
-0.0451531
-0.0140313
-0.492958
-0.310961
-0.391629
-0.326183
-0.448976
-0.162073
-0.130096
-0.144955
-0.179236
-0.217423
-0.0905065
-0.00843878
-0.0242231
-0.0404749
-0.0248261
-0.0117243
0.164138
0.158103
0.155471
0.151567
0.150889
0.16118
0.165997
0.168619
0.174222
0.174853
0.166046
0.170309
0.173295
0.00716536
0.0070379
0.0114117
-0.0140301
0.00078888
0.00653012
-0.00452245
-0.229696
-0.295754
-0.29942
-0.336132
-0.464195
-0.407703
0.13336
0.113095
0.140241
0.34552
0.19631
0.110759
0.197052
0.302225
-0.0751581
0.114506
-0.0477917
0.532697
0.415998
0.560345
0.183353
-0.114058
0.0291929
0.0845363
-0.111792
-0.039106
-0.014402
-0.125276
-0.0913917
-0.0637965
0.0358103
-0.0870976
-0.118704
-0.362223
-0.177473
-0.0472329
-0.0675702
0.0600406
0.121496
-0.100821
-0.18389
-0.222593
0.284388
0.303335
0.320346
0.292574
0.31678
0.240735
0.23257
0.250922
0.261872
0.254943
-1.12706
-0.838441
-1.77858
-1.08799
-0.643432
0.159123
0.115604
0.406956
0.300835
0.382249
0.365136
0.323313
0.285516
0.294809
0.333047
0.0350788
0.141121
0.115685
0.124212
0.0295052
-0.0353752
0.256574
0.251432
0.286811
0.310268
0.280269
0.311783
0.172543
0.172071
0.171795
0.168832
0.167193
0.168676
-0.404306
-0.473254
-0.311639
-0.326536
-0.386628
-0.452365
0.0159564
-0.0176252
-0.0165656
-0.00906
0.019357
-0.00121744
-0.192926
-0.251333
-0.318078
-0.294628
-0.34837
-0.414485
-0.434098
-0.330654
-0.237986
-0.248866
0.0517943
0.304969
0.12696
0.298927
0.132809
0.193493
0.13898
0.127263
0.162969
0.0314369
0.109718
-0.154887
-0.650945
-0.559666
0.417528
0.439866
0.221492
0.0266422
-0.196542
0.00173837
0.203747
0.144443
0.184651
0.250638
0.244735
-0.360435
-0.28398
-0.0551976
0.171803
-0.132631
-0.137584
-0.142815
0.020959
-0.0462866
)
;

boundaryField
{
    wall-4
    {
        type            zeroGradient;
    }
    velocity-inlet-5
    {
        type            zeroGradient;
    }
    velocity-inlet-6
    {
        type            zeroGradient;
    }
    pressure-outlet-7
    {
        type            fixedValue;
        value           uniform 0;
    }
    wall-8
    {
        type            zeroGradient;
    }
    frontAndBackPlanes
    {
        type            empty;
    }
}


// ************************************************************************* //
