/*--------------------------------*- C++ -*----------------------------------*\
| =========                 |                                                 |
| \\      /  F ield         | OpenFOAM: The Open Source CFD Toolbox           |
|  \\    /   O peration     | Version:  2412                                  |
|   \\  /    A nd           | Website:  www.openfoam.com                      |
|    \\/     M anipulation  |                                                 |
\*---------------------------------------------------------------------------*/
FoamFile
{
    version     2.0;
    format      ascii;
    arch        "LSB;label=32;scalar=64";
    class       surfaceScalarField;
    location    "21";
    object      phi;
}
// * * * * * * * * * * * * * * * * * * * * * * * * * * * * * * * * * * * * * //

dimensions      [0 3 -1 0 0 0 0];

oriented        oriented;

internalField   nonuniform List<scalar> 
1300
(
3.75095
5.62643
-5.94089
3.75095
-5.84633
5.62643
-4.54343
4.54343
-1.22283
1.22283
1.87669
1.87426
-2.78811
2.78811
-3.44084
3.44084
-2.63497
2.63497
-5.2464
5.2464
-5.06762
5.06762
4.68328
-4.68328
-4.72657
4.72657
-1.69306
1.69306
-3.88853
3.88853
3.17024
-3.17024
-4.5068
4.5068
-0.423379
0.423379
-0.553411
4.30436
3.19754
3.19754
-2.3353
2.3353
-4.85478
4.85478
6.2182
-6.2182
8.98084
-8.98084
-3.03995
-3.43879
1.33757
-8.2827
-4.50876
-4.50876
-8.44042
8.44042
-2.81399
2.81244
2.94321
-2.94321
-1.76174
1.76174
-4.47978
-0.0636583
-4.47978
4.54353
-9.5544e-05
4.54353
-1.35431
0.131477
-1.35431
4.00281
-4.00281
1.07012
0.152713
1.07012
3.06417
-3.06417
-1.8769
3.7536
1.87405
-1.87162
6.17599
-1.87933
3.75359
-5.8721
5.8721
-3.1024
0.314284
-3.1024
2.55039
0.237721
2.55039
-5.23903
5.23903
-2.97112
-0.46972
-2.97112
3.84177
-0.400928
3.84177
2.87035
-2.87035
-2.67556
0.0405948
-2.67556
2.58371
0.051261
2.58371
0.353581
5.27285
-5.98001
8.79245
-5.27285
0.0264484
5.20848
0.0379197
5.20848
-5.10592
0.0382957
-5.10592
5.01087
0.0567538
5.01087
4.7782
-0.0949172
4.7782
-4.79544
0.112165
-4.79544
-3.33015
-3.51831
-4.82534
0.0987746
-4.82534
-1.68383
-0.00923407
-1.68383
1.67407
0.0189858
1.67407
-3.48757
3.48757
-4.28514
0.396615
-4.28514
3.12522
0.04502
3.12522
1.86856
1.88239
5.61952
-5.61952
2.44928
-4.42314
-0.0836607
-4.42314
-4.61079
-4.37005
4.61079
-0.103988
-0.711637
0.288258
-0.711637
3.15936
0.0381834
3.15936
2.50036
0.0833413
-2.50036
0.165068
3.32731
-3.32731
1.70815
0.627146
1.70815
-5.571
5.571
4.9499
0.0609643
-4.9499
0.0951265
6.15679
0.0614176
6.15679
-6.19956
-0.0186413
-6.19956
3.31567
-6.75446
-3.47722
4.61241
0.114162
-4.61241
0.103644
2.90993
0.0332834
2.90993
-2.92328
2.92328
-2.98154
0.0383209
-2.98154
-2.17748
0.415736
-2.17748
1.44338
0.318363
1.44338
-4.33793
-0.141844
-4.33793
-4.46076
0.175617
4.46076
0.0827722
0.955349
-0.955349
-1.49074
0.136434
-1.49074
-4.15726
-0.180673
4.15726
-0.154448
-3.89054
-0.112276
-3.89054
-3.02252
0.040989
3.02252
0.0416418
3.11216
0.0471981
-3.11216
0.0479951
-1.87093
3.75332
-1.88003
3.75408
-5.493
-0.379094
-5.493
6.08097
-0.208873
6.08097
3.49256
0.395961
-3.49256
0.390169
2.4476
0.102785
2.4476
-5.512
0.272977
-5.512
5.05679
0.182236
5.05679
2.59605
-0.148447
-2.59605
-0.375068
4.11778
-0.276009
4.11778
2.92179
-0.0514348
2.92179
-2.84806
-0.0222956
-2.84806
2.79718
-2.79718
2.72704
0.0701433
-2.72704
0.0514747
-11.1327
11.114
-0.0349859
-11.0977
5.17349
5.17349
4.20638
0.571814
4.20638
-5.00637
0.210924
-5.00637
3.28575
-6.76297
3.50135
-6.83151
3.49633
-11.779
3.37748
-6.89578
5.00697
-5.00697
4.92198
0.0849945
-4.92198
0.0966342
-1.71153
0.0277009
-1.71153
-2.87229
-0.615281
-2.87229
4.15916
-0.671587
4.15916
-3.03199
3.03199
-3.07977
0.0477781
3.07977
0.0454456
4.30227
-0.184494
-4.30227
-0.120867
0.902476
0.167642
-0.902476
0.190838
3.53816
-0.210852
3.53816
-3.12977
-0.197541
-3.12977
-1.716
0.00447198
1.716
-0.00784886
-5.81758
0.246581
-5.81758
-11.1907
0.0930583
-11.1528
-6.1065
-6.1065
2.33392
11.1264
-2.86974
0.0216793
2.86974
0.0401945
2.97952
0.0524773
-2.97952
0.0562349
-2.86416
0.0669847
2.86416
0.0591156
-2.565
0.387525
-2.565
-1.03049
1.03049
-1.21389
0.183401
1.21389
0.229489
1.19382
-0.238475
1.19382
1.59741
0.0766615
-1.59741
0.106671
-3.80056
-0.0899736
-3.80056
6.03728
0.0436848
6.03728
-3.00451
-0.125261
3.00451
-0.0827195
-0.0333112
11.1473
-5.14018
0.034268
5.14018
-11.2088
11.243
-3.24647
0.681472
3.24647
0.959909
5.29423
0.276769
-5.29423
0.287862
5.06704
-0.010253
-5.06704
0.0600729
-2.37209
-0.500199
-2.37209
-4.89602
-0.596986
4.89602
-0.736859
-11.4756
-0.201689
11.6773
-11.4188
6.01927
0.137516
-6.01927
11.3805
-0.918683
-0.0366652
0.918683
0.111806
1.51543
-0.321606
1.51543
3.71104
-0.172884
-3.71104
-0.0895183
-5.87043
0.358423
5.87043
0.166856
-1.93051
-0.441582
1.93051
-0.415078
-4.26642
4.3046
1.90957
-3.24613
-3.50832
-7.61618
1.85252
1.9008
4.3018
-7.30643
-4.47261
-7.20279
7.27261
-6.98475
-9.30104
9.20613
7.51753
-7.6298
-5.78515
5.83059
6.48163
-6.43998
1.87825
1.87534
7.41099
-7.0967
-15.6662
15.2871
6.96123
-7.43095
15.5159
-15.2429
-15.3419
15.3316
-5.76826
5.80885
-6.65131
6.62901
-6.83827
6.75555
-3.1893
-3.64221
9.68364
-9.58486
11.3744
-11.4581
-8.40967
8.80628
3.38239
0.922213
3.42959
-1.88233
3.76058
-1.87126
3.78083
3.51437
-6.70367
3.24859
-6.75692
5.99068
5.38373
-5.8867
-1.72949
-5.90218
5.93546
-5.8228
5.88191
8.93333
-8.99699
-1.88591
3.76126
-1.86817
3.76896
-3.42494
-2.36021
3.37992
0.921887
5.84291
3.84073
-5.95707
-1.24571
-7.72396
7.55108
-8.00723
7.80969
-0.452402
5.82437
-5.37197
4.40237
-1.55356
7.37793
5.71904
5.92997
5.86833
-5.59156
1.11642
-6.48838
-6.39326
-2.56553
2.70196
2.5622
-2.40948
5.91464
1.60288
5.76019
-5.49691
-2.13289
-5.58689
3.82025
2.01034
3.86803
4.07695
2.40468
4.11794
3.0308
-3.03622
0.00541744
-3.05567
6.08647
0.725038
-5.41589
-4.494
4.06682
3.34416
4.30454
-5.34256
-1.75414
-4.95239
-9.43291
-6.23329
-10.0299
10.1023
5.18478
9.89346
-12.0705
12.2374
5.32591
1.63532
4.92498
-3.99185
-3.4391
-4.36692
12.0383
-0.894976
-11.1434
-9.47421
-5.86764
9.29198
6.22393
8.86273
6.46888
8.9228
3.34195
8.69639
-9.56588
3.69823
-3.86352
-1.90474
-3.81204
3.7425
2.06635
3.79376
-4.16382
-2.48749
-4.14214
-4.20027
-2.638
4.2517
2.37731
-4.30197
-3.70526
4.42723
2.32832
3.25357
-7.72617
3.64222
-7.28443
-6.9236
-2.66127
-6.82696
4.35826
2.37663
-6.73489
-2.34541
10.8318
-5.44808
9.10233
-6.80425
-4.65383
-6.92512
-6.81617
-1.5935
-6.64055
-8.82697
8.32677
-9.11914
8.44756
12.6955
-5.64893
-7.04658
-3.96807
-2.47192
3.92007
-0.490483
-3.71158
3.717
0.0490001
3.82983
4.75205
4.26156
-3.88612
-1.93667
-3.82989
3.82936
2.05255
3.89634
6.75887
2.17446
6.75878
-6.39925
-2.59774
-6.54109
9.09671
-8.68097
2.96902
-2.96454
5.22314
2.58656
-5.01229
-2.71168
6.04567
-3.02857
-3.0171
-12.2217
10.5912
1.63054
-4.84379
-0.441414
-0.0180344
-5.51229
-3.78875
5.40013
0.529838
11.121
7.33227
-5.51446
5.76104
6.16282
6.22378
-0.169478
5.85655
-5.17508
5.28271
-2.2892
-2.99351
5.25532
-5.43599
-1.28577
-5.23721
3.95144
0.3242
1.87086
-1.5826
-2.05348
-0.51204
-1.94681
1.57562
0.986572
1.74327
0.984832
1.71713
-2.94434
0.56088
2.38346
-1.95951
-1.8486
-3.56947
-1.02932
4.59879
5.49882
2.05226
-5.4093
-0.177588
2.72899
-2.71
-0.698826
-2.87065
2.17248
-2.87131
-3.50543
-1.92292
5.42835
-3.36877
-0.461115
3.31629
0.551734
-3.82201
-2.08016
3.78369
0.334246
-3.12561
6.19825
-3.07264
-5.06228
2.52891
3.55756
4.53925
-4.78946
2.44506
2.3444
-1.23189
3.18606
1.11848
3.28885
-6.94171
5.18757
5.68863
3.11765
-6.08459
1.1322
-5.80951
8.55055
-7.48884
-1.06172
3.66978
4.88077
7.16858
5.52694
-5.7724
12.941
-1.27106
-6.21778
7.08057
-3.96292
4.78099
-8.74391
-10.3079
4.09015
-10.1062
12.2692
-2.16293
-3.40816
-8.66238
13.5144
-1.27477
-12.2396
8.61869
-6.11878
-3.19924
9.31801
-7.01375
6.63833
-2.96392
-3.67442
-10.234
-5.00896
9.87554
2.36185
-9.01836
12.7166
-0.321978
4.98801
-0.0630305
4.712
4.53862
-6.05992
1.5213
2.47513
-5.43905
2.25782
-8.31774
-5.42719
10.0389
-4.61175
-8.08846
-7.72694
-0.36152
1.50874
11.2079
-7.97762
5.54611
2.43151
3.30778
0.588562
-3.37792
-0.434118
0.343117
4.49961
-4.84273
4.13688
4.22022
3.40078
1.09883
3.80962
2.12584
-3.84982
-0.292323
-4.11059
1.47259
-1.73328
-3.63859
5.11118
-4.05966
0.421074
-2.71218
-3.55931
6.2715
-4.61693
3.04872
3.14953
5.10127
-4.95014
1.39083
-2.44108
-2.50906
2.66883
-4.40211
1.95113
3.16004
4.27945
0.574191
5.26463
4.77432
-7.64126
0.356837
8.61505
-7.36933
2.25558
6.66722
-7.80169
0.0747469
-6.75221
0.828318
-6.2764
-5.90658
5.14903
-6.74254
-3.59488
6.17437
0.584405
-6.25715
-0.383402
-5.97415
-2.85282
-6.41573
-3.04923
-6.06992
-8.82162
-1.64157
-7.18005
6.6852
-6.57364
-3.45626
7.31049
1.13706
-7.35156
7.3149
-7.43277
7.11116
0.094979
3.62202
4.35654
1.88462
-2.39012
4.27475
-5.05176
7.22622
-8.44148
3.38972
3.92244
-6.52018
-4.51903
5.02659
4.07012
5.34495
8.94674
-10.577
1.63022
-10.8634
12.1941
-1.33062
-16.6345
5.77105
-7.68775
2.70196
0.26706
2.72966
0.675986
2.41226
-3.08824
-2.28856
-2.29641
-2.26835
-3.32081
5.58917
1.11513
-3.32667
2.21155
-3.45376
4.56888
-0.0780943
-3.24858
5.22722
-2.81496
5.49428
-3.53185
1.96242
3.23071
5.51693
-2.28622
4.257
-1.67045
1.77548
-4.0617
-1.54533
-3.01509
5.08144
-3.25641
3.67748
-0.238714
3.91619
-4.01025
0.981689
-0.609473
3.61075
3.77582
4.18973
-3.0909
2.88908
-4.55953
-1.17262
-3.98534
-0.825298
-0.35704
-3.70311
4.06015
6.06143
-6.41847
-5.30452
9.61508
-4.31056
7.74142
-5.4309
-2.31052
-4.28539
-4.39558
3.89787
1.95868
9.7001
0.203446
-5.63435
-4.97163
-4.01172
3.23349
2.04923
-2.06538
3.69592
2.08342
-0.212561
0.57323
1.17004
1.92129
-1.34806
0.221722
1.69957
-1.36088
1.99473
0.734262
-2.07139
0.124575
-1.30391
3.4764
1.07955
-2.06612
0.718061
1.0947
-3.3839
4.6727
-2.39011
-2.28258
5.76739
1.16119
-3.5513
4.07602
-3.75182
2.26514
-3.29446
-1.28616
-5.03799
-3.4351
-2.45761
4.66916
-3.13155
5.18382
1.16373
-5.00623
6.16996
-3.54079
1.61786
-3.00094
3.7352
-1.0281
-1.97284
2.75661
2.67174
-2.89139
0.0207487
-0.134782
2.30735
-2.44213
-0.563962
-2.52347
-4.57215
4.9064
-2.10727
4.55233
2.16748
-1.91199
6.46432
1.81453
-3.72652
-3.24775
-3.70887
-1.38212
3.15713
-1.25234
-3.11458
-4.92675
3.26303
0.0258198
-6.78711
6.96369
-0.176579
-3.44294
-1.74463
5.41441
-6.24193
0.80288
-3.98412
2.97957
4.09805
4.12387
-11.6863
-0.553367
-6.50148
0.915432
-7.41692
5.7962
-3.66048
7.75063
-10.4176
6.96129
-9.28049
6.68892
-0.727998
6.80744
-5.28614
4.33591
-9.34487
-6.98302
5.87145
-4.23613
5.80842
-4.75991
10.5683
-5.08188
6.97087
3.59746
-1.73879
-5.18633
-6.31204
4.57326
0.658823
5.37082
4.9457
-2.81986
4.65337
2.23623
-4.67731
-2.16588
-6.54758
1.87027
-3.39806
-1.91594
3.78622
3.18533
3.77389
1.27716
-3.33977
7.37851
-7.74003
-2.76675
-3.13982
6.5332
-1.95994
4.39703
-7.53685
-1.87937
4.89271
-0.809661
-4.08305
0.756223
-4.3511
1.59633
-5.94743
5.14621
-5.52961
2.18039
-9.86814
-5.17118
-5.05937
-2.24076
-5.19201
-7.65546
5.41471
-1.88441
5.43049
-8.68241
7.87275
-3.51164
8.92635
-5.37729
-1.03845
5.79236
1.3188
10.2451
0.105715
-4.62475
-1.80739
3.92326
-2.11587
1.4261
-3.59739
0.325864
2.45584
3.31156
-6.40727
-0.11291
-4.73766
-3.91036
7.98048
5.70472
11.7661
1.18919
9.1973
-1.21682
10.3865
4.12813
4.35762
-2.96744
4.59765
1.09271
4.48243
-0.854422
2.81685
1.87523
1.866
0.844002
2.30532
1.4705
3.28701
0.198762
-2.09764
4.65968
-8.6714
-0.974664
-8.09959
1.10654
5.74451
-4.63798
3.16084
-1.11161
1.04497
0.178847
-1.79911
1.62026
-2.81467
-2.01167
-0.312099
-1.64441
2.36247
1.83198
-2.05037
-0.764291
0.31476
-3.74986
2.9797
-2.95895
-0.287208
5.88275
-2.69895
0.256822
-1.08109
-2.26665
-2.77869
2.65411
6.1793
0.285017
3.10666
5.19142
3.11125
0.291394
3.94535
-6.10828
-4.37239
-6.66165
-0.865442
4.54897
3.16465
8.0432
6.76211
4.80217
-2.73468
-10.4747
6.57178
-1.97413
5.24116
-1.15812
-4.78932
4.97031
2.25591
-5.55472
0.0251074
-4.76421
-6.73834
-0.529704
8.40245
-9.71545
8.677
5.82418
1.35587
-4.37023
-0.68914
4.18683
0.170789
10.5573
-1.13006
-6.89886
8.02891
-4.61446
3.63979
0.901415
2.79451
2.52167
1.41006
-5.4888
-10.1268
-1.83434
-1.54956
-4.11693
0.481866
-2.31385
6.28132
-2.64153
3.97081
5.38738
6.43235
-2.19874
-4.21972
6.5093
-2.53849
3.89386
)
;

boundaryField
{
    wall-4
    {
        type            calculated;
        value           uniform 0;
    }
    velocity-inlet-5
    {
        type            calculated;
        value           uniform -3.75095;
    }
    velocity-inlet-6
    {
        type            calculated;
        value           uniform -5.62643;
    }
    pressure-outlet-7
    {
        type            calculated;
        value           nonuniform List<scalar> 8(5.94089 5.84633 6.47874 6.94513 6.84846 6.79289 6.7871 6.87381);
    }
    wall-8
    {
        type            calculated;
        value           uniform 0;
    }
    frontAndBackPlanes
    {
        type            empty;
    }
}


// ************************************************************************* //
