/*--------------------------------*- C++ -*----------------------------------*\
| =========                 |                                                 |
| \\      /  F ield         | OpenFOAM: The Open Source CFD Toolbox           |
|  \\    /   O peration     | Version:  2412                                  |
|   \\  /    A nd           | Website:  www.openfoam.com                      |
|    \\/     M anipulation  |                                                 |
\*---------------------------------------------------------------------------*/
FoamFile
{
    version     2.0;
    format      ascii;
    arch        "LSB;label=32;scalar=64";
    class       volVectorField;
    location    "21";
    object      U;
}
// * * * * * * * * * * * * * * * * * * * * * * * * * * * * * * * * * * * * * //

dimensions      [0 1 -1 0 0 0 0];

internalField   nonuniform List<vector> 
918
(
(0.98515 -0.000533929 0)
(0.0050018 2.96626 0)
(-0.0160385 1.5709 0)
(0.979691 0.00216777 0)
(-0.00304189 1.55595 8.7259e-21)
(-0.00703202 2.94878 -1.84125e-18)
(0.855518 1.19931 7.43082e-19)
(0.413005 0.187248 -8.6485e-21)
(0.999905 -0.000322666 0)
(0.0719076 0.809316 0)
(-0.0535678 0.997954 0)
(0.761363 -0.0115177 0)
(0.0111188 2.93031 0)
(0.00200765 2.79452 0)
(-0.0176109 3.16742 1.09741e-18)
(-0.00307577 1.44046 6.34193e-21)
(0.534423 0.0833807 5.41962e-19)
(0.193125 1.20389 6.56745e-19)
(0.962989 0.00514337 0)
(0.00407497 1.2943 0)
(0.136935 0.246097 -4.63853e-19)
(1.00208 -0.00499549 0)
(1.00023 -0.0097527 0)
(0.975757 -0.00645096 0)
(0.673276 -0.0377084 0)
(0.017405 2.63245 0)
(-0.0150508 2.91013 6.33565e-19)
(-0.0263845 1.59056 0)
(-0.033165 1.72996 0)
(-0.0271629 1.58321 0)
(-0.00502417 1.8513 0)
(0.00268608 1.58168 -6.90174e-21)
(-0.00260878 1.4553 0)
(-0.0206226 2.98758 -6.42831e-23)
(-0.0167039 3.00531 1.43123e-18)
(0.00210818 3.00021 0)
(0.870865 -0.00913059 0)
(0.39434 0.931489 -4.07516e-20)
(0.835705 1.21716 -1.0442e-18)
(0.982067 1.05357 9.77197e-19)
(0.702293 1.31294 -1.72309e-19)
(0.698944 1.30251 9.66196e-19)
(0.447377 0.275166 8.43806e-21)
(0.441288 0.173299 0)
(1.16401 0.562027 0)
(0.414972 0.286033 3.96258e-20)
(0.37345 0.18902 -4.11216e-20)
(0.919493 -0.00744521 0)
(1.00028 5.62879e-05 0)
(0.99991 0.000305931 0)
(1.00352 -0.00778791 0)
(1.00094 -0.00106171 0)
(1.00017 -8.19071e-06 0)
(0.0504755 1.81804 -2.91679e-19)
(0.0390343 0.949089 0)
(0.0806219 0.912701 0)
(0.0142326 0.863048 0)
(0.0089209 0.729121 0)
(0.00438381 1.53512 0)
(-0.0669869 1.04667 0)
(-0.0511004 0.853777 0)
(-0.0471963 1.18699 0)
(-0.0349319 1.11613 0)
(0.842163 -0.00412535 0)
(0.861367 0.0107229 0)
(0.77465 -0.00268781 0)
(0.854406 0.015922 0)
(0.747594 -0.0131419 0)
(0.0147056 3.00039 6.73523e-19)
(0.0115355 3.00789 0)
(0.00614019 3.00285 0)
(0.0135545 2.99733 7.502e-24)
(0.00799681 2.95845 -1.00102e-18)
(0.0144848 2.98204 0)
(0.0107779 2.90365 0)
(0.0252993 2.93019 1.3318e-24)
(0.00410767 2.82496 0)
(0.0317887 2.91538 0)
(-0.00668025 2.74475 0)
(0.311436 3.56787 0)
(-0.132435 3.65014 0)
(0.141214 3.25819 1.0213e-18)
(-0.0111744 2.9902 0)
(-0.0242174 1.82651 0)
(0.00761751 1.61789 -6.25577e-21)
(-0.00308897 1.44789 1.11654e-20)
(0.586868 0.151387 -1.86294e-19)
(0.528813 0.0514632 -1.81439e-19)
(0.575303 0.181325 -5.62225e-19)
(0.523685 0.112871 -3.7818e-19)
(0.20732 0.893711 0)
(0.271947 1.34906 -6.77613e-19)
(0.397784 1.30338 1.11225e-18)
(0.987541 0.00847076 0)
(0.942383 0.00595523 0)
(1.00029 0.000561415 0)
(1.00288 0.00927854 0)
(1.00306 0.00849635 -1.01996e-18)
(0.99195 0.00966284 7.7023e-19)
(-0.0109895 1.45724 0)
(-0.00610483 1.2793 0)
(-0.0347426 1.59722 0)
(-0.0205492 1.50064 0)
(-0.00230188 1.32922 0)
(0.202933 0.257232 1.43022e-19)
(0.249089 0.234518 0)
(0.993559 -0.00827002 0)
(0.95439 -0.00640965 0)
(0.823062 0.0245858 0)
(0.790116 0.0365092 0)
(0.725412 -0.0283849 0)
(0.99051 -0.00375145 0)
(0.732423 0.0514971 0)
(0.583749 -0.0169714 7.2014e-19)
(-0.0354915 2.86649 3.13742e-19)
(0.0434017 2.90829 0)
(0.0566424 2.88307 0)
(-0.00510583 2.69673 0)
(-0.0131986 2.98516 5.8106e-19)
(-0.0182865 2.89539 0)
(-0.015419 2.98812 -1.84112e-18)
(-0.0134087 2.92521 6.36363e-19)
(-0.0300006 1.81206 0)
(-0.0254206 1.81095 0)
(0.00261356 1.59928 2.81478e-22)
(0.00422313 1.57448 0)
(-0.0055422 1.45085 0)
(0.936622 -0.00599952 0)
(0.855206 -0.00937861 0)
(0.864523 0.00859849 0)
(0.948616 -0.00723953 0)
(0.883379 -0.00840137 0)
(0.508176 1.1273 3.97878e-20)
(0.560094 1.18274 0)
(0.353899 0.869175 3.04287e-21)
(0.297151 0.730755 0)
(0.942011 1.08992 -2.8267e-19)
(1.05386 0.888213 5.79299e-19)
(0.39496 1.40169 0)
(0.554951 1.37947 0)
(0.556271 1.3324 0)
(0.0980286 0.149577 -1.1834e-19)
(0.490485 0.259416 0)
(0.474466 0.158975 1.07915e-19)
(1.02351 0.941079 0)
(1.08911 0.783814 0)
(1.11506 0.726336 -5.07806e-19)
(1.14412 0.621277 0)
(1.19541 0.404297 5.80976e-20)
(0.956996 -0.00896897 0)
(0.962185 -0.010231 0)
(0.900929 -0.00809901 0)
(0.9842 -0.00912764 0)
(0.97453 -0.00935849 0)
(0.936879 -0.00625917 0)
(1.0002 0.00231825 0)
(1.00086 0.00129746 0)
(0.999931 0.000862607 0)
(0.00920705 2.02559 1.75497e-19)
(0.126026 1.71829 0)
(-0.034628 2.07627 7.46753e-20)
(-0.0182865 1.85499 -1.05261e-19)
(0.133838 1.19707 -5.44367e-19)
(0.0723422 1.04699 0)
(0.105195 1.04796 0)
(0.00608347 0.822739 0)
(-0.0108306 0.699427 0)
(-0.00623913 1.75753 2.22175e-21)
(-0.0638183 1.62664 0)
(0.0533989 1.70855 1.30845e-19)
(-0.00271342 1.4645 3.412e-20)
(-0.0240632 0.81981 0)
(-0.0545498 0.912383 0)
(-0.0352754 0.746364 0)
(-0.035083 1.29955 0)
(-0.0217536 1.19156 0)
(0.933462 0.0152403 0)
(0.863474 -0.000868701 0)
(0.917307 0.00585364 0)
(0.835727 -0.00782532 0)
(0.811007 0.00531525 0)
(0.902527 0.0151969 0)
(0.881257 0.0133596 0)
(0.786695 0.00342764 0)
(0.00588852 3.06485 -5.89622e-21)
(0.0163648 3.05795 0)
(0.0146622 2.96915 0)
(0.00855622 2.87639 0)
(0.929609 3.98806 0)
(1.24546 3.3177 1.01887e-18)
(0.0714929 3.08242 0)
(-0.0266221 2.91068 0)
(-0.0306068 1.80217 0)
(-0.0331067 1.81996 0)
(-0.0286969 1.80863 0)
(-0.0100604 1.83985 4.90107e-21)
(-0.024482 1.83791 0)
(-0.0178981 1.83356 0)
(0.00860031 1.46267 -2.50291e-20)
(0.0227886 1.65791 -4.3124e-20)
(0.0109692 1.6347 -1.12394e-20)
(-0.000960748 1.456 0)
(0.616606 0.124709 2.74474e-19)
(0.547719 0.0216379 -2.67247e-19)
(0.267022 1.52662 0)
(0.259036 0.663612 -2.06301e-19)
(0.183272 1.61413 -6.94229e-19)
(0.244637 1.16107 6.95971e-19)
(0.90383 0.00671155 0)
(0.967807 0.010679 0)
(0.974934 0.0105984 0)
(0.924394 0.00662366 0)
(-0.0279408 1.38159 0)
(-0.0179058 1.43176 0)
(-0.0147358 1.24022 0)
(0.372799 0.290285 3.66615e-19)
(0.316112 0.272495 -4.48273e-19)
(0.322975 0.210567 0)
(1.11455 0.0849522 -4.90393e-21)
(1.09987 0.0391307 0)
(1.02711 0.0387141 0)
(0.930061 0.00464104 0)
(0.641947 0.0931736 0)
(0.6731 0.0679018 -1.15957e-18)
(0.563111 0.00600135 4.43561e-19)
(0.00978223 2.98224 4.05892e-19)
(-0.0322007 2.86762 4.81117e-20)
(0.00377369 3.05023 -1.27601e-20)
(0.0199733 3.04347 4.58917e-19)
(-0.0150017 2.99654 2.11801e-20)
(-0.0129851 2.94941 -8.5762e-23)
(-0.0172965 3.01201 -4.02218e-19)
(0.0148136 3.02402 2.91087e-19)
(0.00731598 3.03682 -4.54337e-19)
(0.924263 -0.000233161 0)
(0.933562 -0.00200294 0)
(0.84042 -0.00752804 0)
(0.957363 0.0115184 0)
(0.944055 0.0133784 0)
(0.883447 0.00727301 0)
(0.918569 0.0144261 0)
(0.927788 0.0145493 0)
(0.839299 0.00774956 0)
(0.716823 1.41296 3.4053e-19)
(0.75256 1.52433 0)
(0.221884 0.362292 2.40077e-20)
(0.1821 0.585116 1.92574e-19)
(0.265983 0.689887 -1.06059e-19)
(0.227635 0.573172 1.9257e-19)
(0.291246 0.699614 6.89621e-19)
(0.104095 0.179879 2.10386e-19)
(0.552949 0.218112 -3.91404e-19)
(0.520942 0.241484 1.00239e-19)
(0.500751 0.141824 2.04513e-19)
(1.1847 0.461313 3.06245e-19)
(1.20235 0.256078 3.20395e-19)
(-0.0583522 2.05376 3.34842e-20)
(-0.0175136 1.83644 0)
(0.978325 0.028709 0)
(0.945871 0.0190439 0)
(0.889495 -0.00216004 0)
(0.011149 3.07471 0)
(0.02009 2.94424 7.84028e-19)
(0.016511 2.95652 0)
(0.00607668 2.85066 -7.77712e-19)
(0.00617115 3.09202 1.85576e-19)
(0.00713181 3.08214 0)
(0.786605 1.82974 -2.42902e-19)
(1.25256 2.51359 6.70113e-19)
(0.769525 1.97111 -1.50561e-18)
(0.0210262 2.98453 -2.91294e-19)
(0.0369714 3.00691 0)
(-0.0324887 2.88205 0)
(0.0751758 1.67109 1.87517e-20)
(0.0445229 1.6897 1.18404e-20)
(0.0372419 1.46017 -1.05498e-21)
(0.27901 1.33706 6.67868e-19)
(0.218611 0.444445 -4.60872e-19)
(0.0566637 1.94568 4.6037e-19)
(0.133944 1.82316 -5.7747e-19)
(0.204294 1.46324 8.26297e-20)
(0.00574644 3.11845 -9.70053e-19)
(0.011931 3.11911 1.05927e-18)
(-0.00881394 2.98079 5.03103e-19)
(-0.00366463 2.9777 -4.42143e-19)
(-0.021636 2.88161 -5.12402e-19)
(0.00856453 3.09931 -1.35669e-18)
(0.0018072 3.10532 1.36059e-18)
(0.225276 0.617743 0)
(0.17788 0.601598 -3.78338e-19)
(0.121294 0.204619 1.69013e-19)
(0.320769 0.820996 6.31309e-19)
(0.170894 0.224959 -9.63885e-19)
(1.19823 0.171313 -6.21265e-20)
(1.20196 0.308395 0)
(1.1869 0.119551 1.26738e-19)
(-0.0435193 1.88742 2.41096e-21)
(-0.0392267 1.99025 0)
(-0.0503121 1.75767 0)
(0.329966 1.21988 -2.42923e-19)
(0.350654 1.03732 -5.17548e-19)
(0.190091 0.320049 8.86606e-19)
(1.00584 -0.0110678 0)
(1.00759 -0.00761504 1.86156e-19)
(-0.0314568 1.79474 0)
(-0.0391169 1.80089 0)
(1.00221 0.00337869 1.67329e-21)
(1.00354 0.00923808 3.82851e-19)
(-0.011519 1.84769 -6.42759e-21)
(-0.00757412 1.84996 0)
(0.039073 3.18339 1.00282e-19)
(0.400432 3.50283 0)
(1.11769 0.645258 6.9985e-20)
(1.01313 0.0127598 -2.08051e-21)
(1.02119 -0.0105095 0)
(1.00173 -4.27373e-05 1.75937e-24)
(0.162706 1.24564 0)
(0.191705 2.58088 0)
(-0.227813 1.24055 0)
(-0.217815 2.54463 -1.69409e-19)
(-0.151815 2.18805 3.10859e-20)
(1.00659 0.0128374 3.06518e-21)
(1.04964 0.00787154 0)
(1.07469 0.0307656 0)
(-0.0347215 1.82246 0)
(-0.0326358 1.908 0)
(-0.0520485 1.74403 0)
(0.285772 1.45359 -4.52165e-19)
(1.01109 -0.00960767 0)
(1.00947 -0.0153068 0)
(1.00238 0.000392936 2.35794e-19)
(1.0055 -0.00500234 -2.80097e-19)
(1.00123 -0.00109043 0)
(-0.0442495 1.80885 0)
(-0.0349239 1.79209 0)
(-0.0362327 1.80168 0)
(-0.0432946 1.74928 0)
(-0.0326751 1.76796 0)
(-0.0368863 1.764 0)
(1.03268 -0.0120893 0)
(1.02069 0.0158528 -1.15727e-21)
(0.781693 1.26477 5.30869e-19)
(1.00244 0.000255999 -2.36807e-19)
(1.00375 0.00533362 2.79221e-19)
(1.00127 0.00213225 0)
(1.01303 0.0100786 2.30021e-19)
(1.00828 0.0083093 -2.86545e-19)
(1.00865 0.0144645 0)
(-0.0297446 1.90411 0)
(-0.0176465 1.87391 -2.30708e-22)
(-0.0162472 1.87603 2.14244e-21)
(1.19005 0.256439 -9.64555e-20)
(1.1286 0.0897704 0)
(0.0524454 3.078 -4.99122e-19)
(0.0681947 2.85118 -4.0274e-20)
(0.147546 3.19739 7.87858e-19)
(0.141614 3.22642 7.07267e-21)
(0.140085 3.24244 0)
(0.021017 3.13853 1.06775e-19)
(0.0803188 3.16216 4.86202e-19)
(0.0729662 3.18952 -2.0686e-19)
(0.0250739 3.12855 0)
(0.664084 0.325231 0)
(0.603251 0.36771 0)
(1.09064 0.671815 -2.64737e-19)
(1.08791 0.812315 -9.93996e-20)
(1.14626 0.561377 0)
(1.17765 0.502957 0)
(1.01601 0.0130126 -4.24519e-19)
(1.01461 0.0139797 -1.60016e-21)
(1.02515 -0.0104989 0)
(1.02336 -0.0121342 0)
(1.00689 0.00275367 0)
(1.01023 0.00313528 0)
(1.00493 0.00156584 0)
(1.00987 0.00580975 0)
(1.00824 0.00635876 0)
(1.0042 0.00462638 0)
(0.181833 1.2478 0)
(0.126661 1.09313 0)
(0.209619 1.33554 0)
(0.124723 1.33608 0)
(0.167729 2.59157 0)
(0.204679 2.63438 -2.05589e-19)
(0.0951174 2.65688 0)
(0.0839744 2.64126 -1.2714e-20)
(-0.0972634 2.70922 2.11332e-19)
(-0.19002 1.3021 0)
(-0.181171 1.33979 0)
(-0.210983 1.22419 0)
(-0.147433 1.0719 0)
(-0.399279 2.22755 2.39776e-19)
(-0.223411 2.32606 -8.05026e-20)
(-0.209207 2.53005 -1.75494e-19)
(-0.168363 2.42395 0)
(-0.140166 2.18256 -4.67496e-20)
(-0.0829966 2.1141 3.65458e-20)
(-0.430788 2.19734 -2.22046e-19)
(-0.318663 2.25943 1.05478e-19)
(-0.296349 2.39259 2.34247e-19)
(1.01645 0.025408 4.18465e-19)
(1.01193 0.0129362 3.35997e-21)
(1.00812 0.0229736 -4.39065e-19)
(0.991795 0.0124588 5.59269e-19)
(1.04968 0.00850097 0)
(1.03633 -0.0114048 0)
(1.07127 0.0392378 0)
(1.05569 0.01805 0)
(1.05424 0.0120808 0)
(1.11217 0.0773725 0)
(1.08457 0.0485389 0)
(1.08757 0.0391736 0)
(-0.0276388 1.85284 -1.43558e-21)
(-0.0418601 1.83985 0)
(-0.0299457 1.84083 0)
(-0.044041 1.94044 3.81947e-21)
(-0.0351216 1.9557 1.61723e-22)
(-0.0750487 1.81478 7.51537e-21)
(-0.0528745 1.80863 -7.61899e-21)
(-0.0632525 1.76894 0)
(-0.0493223 1.78789 0)
(-0.0469774 1.7897 0)
(-0.0718266 1.72177 0)
(-0.0529584 1.67119 0)
(0.390139 1.47191 8.54984e-19)
(0.409528 1.48654 3.31462e-19)
(0.588671 2.43206 -1.51879e-19)
(0.403833 2.52095 4.25802e-19)
(0.341427 2.09026 -4.49814e-20)
(1.02067 -0.00872719 0)
(1.01515 -0.00985409 0)
(1.01485 -0.0157058 0)
(1.00752 -0.00123686 0)
(1.00464 -0.00149791 0)
(1.00745 -0.00472687 0)
(1.00956 -0.00399748 0)
(1.01376 -0.00461821 0)
(1.02216 0.0162741 4.01806e-19)
(1.01737 0.0156226 -5.16425e-19)
(1.0238 0.0200847 -4.08566e-19)
(1.01751 0.020781 5.1194e-19)
(0.756383 1.3117 0)
(0.687588 1.36984 6.30549e-19)
(0.85807 1.20279 3.68543e-19)
(0.898904 1.16076 -4.90414e-19)
(1.14873 2.61685 -5.79946e-19)
(0.835576 0.108125 2.8053e-19)
(1.12829 0.101159 0)
(1.17347 0.180595 8.2423e-20)
(1.15934 0.15694 3.60625e-21)
(0.982052 0.122386 0)
(0.147909 2.96707 1.14188e-19)
(0.12539 2.87307 -6.45243e-19)
(0.0377788 2.35628 4.68883e-19)
(0.103132 0.0958025 -1.96769e-19)
(0.345131 3.43097 -4.51434e-19)
(0.199396 3.32178 0)
(0.240765 3.36634 5.8791e-19)
(0.25577 3.0407 -7.07596e-19)
(0.349845 3.20018 0)
(0.00770195 3.12048 2.56171e-20)
(0.0189074 3.12938 -3.26706e-19)
(0.0165582 3.12531 4.80874e-19)
(0.037778 3.13973 0)
(0.0361334 3.15177 0)
(1.21571 2.61846 0)
(0.510266 0.85439 -2.24926e-19)
(1.01925 0.987553 -2.09649e-19)
(0.954367 1.05371 0)
(0.798219 0.949347 6.05821e-20)
(1.04046 0.861257 3.05179e-20)
(0.408041 0.455531 -5.27204e-19)
(0.701175 0.336252 -2.22211e-20)
(0.688101 0.280074 2.15458e-19)
(0.614933 0.398595 1.72693e-20)
(0.55296 0.385331 -7.11209e-19)
(0.674581 0.359342 0)
(0.708552 0.424425 3.51263e-19)
(0.705921 0.421787 0)
(0.640888 0.388161 0)
(0.624814 0.329931 0)
(0.765701 0.58716 1.21422e-19)
(1.18861 0.272234 -5.41589e-20)
(1.18496 0.402954 0)
(1.19702 0.358156 0)
(0.766571 0.198331 3.25433e-19)
(0.820492 0.520787 -1.75493e-19)
(0.737758 0.492935 -2.84743e-19)
(0.913466 0.418866 -2.61879e-19)
(1.01928 0.0144906 2.78042e-19)
(1.01763 0.0138368 -2.85771e-19)
(1.01506 0.0155305 0)
(1.03427 -0.00889907 0)
(1.02905 -0.00948951 -2.54003e-19)
(1.02681 -0.012404 2.51122e-19)
(1.02595 0.00794252 0)
(1.02467 0.0130631 0)
(1.0115 0.00395453 0)
(1.01427 0.00902097 0)
(1.01515 0.00366892 0)
(1.01389 0.00206156 0)
(0.139084 1.05967 0)
(0.0539659 0.960499 0)
(0.270129 1.37772 4.21905e-19)
(0.260832 1.45008 2.62825e-19)
(0.196699 1.43292 6.0044e-19)
(0.202561 1.42717 -3.25104e-19)
(0.219294 1.41009 0)
(0.209569 1.60912 2.51478e-19)
(0.243986 1.61375 0)
(0.328345 2.03971 6.5342e-20)
(0.34016 2.37918 2.23403e-19)
(0.204952 1.46732 -2.28617e-19)
(0.24341 1.3932 2.01721e-19)
(0.223151 1.38633 1.61733e-19)
(0.255064 1.33635 3.31985e-19)
(0.197332 1.58329 -1.86018e-19)
(0.28141 1.61155 -2.09705e-19)
(-0.0200809 2.52141 1.8976e-19)
(-0.0703325 2.7361 0)
(0.104391 2.51022 -3.04349e-19)
(0.0275699 2.59116 0)
(0.0513072 2.7057 1.28069e-20)
(-0.0283241 2.7371 0)
(-0.381012 1.54768 3.54303e-19)
(-0.421064 1.69081 0)
(-0.247815 1.33898 0)
(-0.303092 1.33837 -3.99466e-19)
(-0.221505 2.6283 -7.37439e-20)
(-0.168467 2.72104 -2.78862e-19)
(-0.181018 2.68476 -1.79751e-21)
(-0.396498 2.0219 -3.70435e-20)
(-0.439655 1.97899 8.31569e-20)
(-0.15686 1.42971 0)
(-0.111715 1.46271 0)
(-0.178608 1.85259 -7.22031e-19)
(-0.203123 1.40641 -7.00896e-19)
(-0.255538 1.65497 8.87704e-19)
(0.0786194 1.81443 0)
(-0.0885958 1.88377 -1.79855e-20)
(-0.0766567 1.92263 5.23859e-21)
(-0.0915129 1.94547 -1.12832e-21)
(-0.330086 1.9202 4.32668e-20)
(-0.150089 2.05104 2.75746e-21)
(-0.182431 2.10836 1.4425e-20)
(1.02049 0.0237718 -2.74409e-19)
(1.01893 0.0239321 2.73217e-19)
(1.01447 0.0209202 0)
(1.00529 0.048196 3.9932e-19)
(0.993803 0.0345177 -4.70205e-19)
(0.965456 0.0229352 5.45619e-19)
(1.00617 0.0825783 -5.16175e-20)
(1.03805 -0.0111955 0)
(1.03946 -0.00753452 2.26185e-19)
(1.03135 -0.02024 -2.28235e-19)
(1.05708 0.0433813 -1.23745e-20)
(1.05522 0.0262623 1.10851e-19)
(1.05421 0.0513761 0)
(1.04667 0.0434877 -4.16286e-20)
(1.03862 0.0278219 0)
(1.03413 0.0230559 0)
(1.02926 0.0112252 0)
(1.02772 0.0151547 0)
(1.04642 0.0265195 8.67857e-20)
(1.04678 0.0193298 -1.96813e-19)
(1.04931 0.0285535 -8.70093e-20)
(1.04716 0.028636 -1.01463e-19)
(1.05502 0.0572839 1.80378e-19)
(1.07692 0.0507995 0)
(1.0805 0.0932466 0)
(-0.0820503 1.87891 -7.44049e-21)
(-0.0530213 1.84309 -1.30752e-21)
(-0.06431 1.85185 0)
(-0.054256 1.88255 7.44728e-21)
(-0.0339605 1.85774 2.63109e-21)
(-0.0402384 1.86962 -1.51311e-21)
(-0.068588 2.08437 -4.15679e-20)
(-0.0967619 1.97973 -4.53117e-22)
(-0.114627 2.01163 -1.4782e-22)
(-0.046106 2.00555 6.57146e-21)
(-0.0471078 2.02498 2.28632e-21)
(-0.0985465 1.78841 -1.31866e-22)
(-0.0962154 1.81797 1.00617e-20)
(0.387789 1.39676 -4.38836e-19)
(0.365745 1.37705 -4.30502e-19)
(0.64069 1.41783 -6.06809e-19)
(0.518936 1.47919 -3.2783e-19)
(0.557829 1.45608 0)
(0.587578 2.40523 1.19774e-19)
(0.653847 2.38942 2.21225e-19)
(0.408174 2.4961 7.74384e-20)
(0.405391 2.55311 -1.5708e-19)
(0.51569 2.51654 2.54013e-19)
(0.54223 2.44488 0)
(0.482859 2.48717 -3.46622e-19)
(0.258122 2.55181 5.99493e-19)
(0.34371 2.53707 -7.34455e-20)
(0.287838 2.61419 -9.13195e-19)
(0.924522 2.37249 2.04647e-19)
(0.831983 2.3632 0)
(1.01046 0.000488783 9.27576e-21)
(1.01539 -0.00572982 -7.67568e-21)
(1.018 -0.00404692 -1.38097e-19)
(1.01507 -0.000482337 1.38073e-19)
(1.01232 0.00103003 0)
(0.623154 1.2581 0)
(0.621554 1.17417 0)
(0.729887 1.07785 0)
(0.61969 1.1236 0)
(1.17937 2.63342 5.62265e-20)
(1.06258 2.36662 0)
(0.831693 2.23355 -1.90134e-21)
(0.829559 2.47944 0)
(0.917571 2.56221 2.54788e-20)
(0.950008 2.51806 0)
(0.843361 0.145925 0)
(0.812232 0.151083 8.09965e-20)
(0.927963 0.126012 4.09731e-19)
(0.866825 0.116504 -1.65143e-19)
(0.852257 0.0666802 -4.97773e-19)
(1.03379 0.213671 -2.1986e-19)
(0.954652 0.273101 -1.59673e-20)
(0.901082 0.271334 3.71485e-19)
(0.968448 0.197817 2.73318e-19)
(0.935362 0.158956 -5.12559e-19)
(0.909702 0.172771 6.66344e-20)
(0.934961 0.235137 -1.29008e-19)
(0.912077 0.193992 0)
(0.970443 0.158926 -2.44615e-19)
(1.00935 0.163001 0)
(1.00562 0.189459 0)
(1.07329 0.109014 7.50408e-20)
(1.03336 0.154032 -1.29638e-20)
(1.02776 0.216171 -1.15604e-19)
(1.0641 0.189118 0)
(1.0237 0.0273373 2.07852e-19)
(1.04051 0.0473878 2.45715e-19)
(1.03907 0.0319396 -2.06357e-19)
(1.0372 0.0517916 -1.65499e-19)
(1.01699 0.0533074 -2.80955e-19)
(0.975052 0.123783 0)
(0.984048 0.076511 0)
(0.968735 0.0429705 -1.96741e-19)
(0.936029 0.057663 8.26279e-20)
(1.02446 0.0824637 2.33318e-19)
(1.03979 0.110374 -2.31549e-19)
(1.04283 0.135165 2.11984e-19)
(1.00806 0.123021 0)
(1.04906 0.0968212 0)
(1.03638 0.0793587 -9.71742e-20)
(1.03406 0.0800901 -1.86999e-19)
(0.567725 1.07562 -1.06798e-19)
(0.614562 1.45052 2.06654e-19)
(1.15434 2.76254 1.18063e-19)
(1.2231 3.09794 -7.4124e-20)
(1.24452 2.73529 5.87369e-19)
(1.27792 2.71893 -3.51463e-19)
(1.20358 2.35261 -7.76632e-21)
(1.20885 3.00171 2.08103e-19)
(1.2262 2.96678 -2.36743e-19)
(1.21539 3.25108 -2.74067e-19)
(1.37766 2.98219 3.79543e-19)
(1.37099 2.8987 0)
(0.514094 0.863127 -1.13884e-20)
(0.161366 1.2901 3.64907e-19)
(0.526698 0.531407 3.47469e-19)
(0.360625 0.301094 3.79107e-19)
(0.561473 0.419669 3.98108e-19)
(0.562398 0.486864 -6.34477e-19)
(0.564589 0.505045 5.22876e-19)
(0.525702 0.456203 -2.08669e-19)
(0.474732 0.393753 4.78113e-19)
(0.774069 0.256037 5.59981e-19)
(0.729478 0.30383 0)
(0.720095 0.247381 1.03459e-20)
(0.730307 0.50906 1.82922e-19)
(0.701749 0.472109 -6.75779e-19)
(0.62715 0.483303 1.90988e-20)
(0.642179 0.456566 0)
(0.637865 0.731404 1.42443e-19)
(0.783652 0.751895 4.59097e-20)
(0.710466 0.838626 -6.21937e-20)
(0.831185 0.788758 -1.28402e-20)
(0.868066 0.829779 1.5659e-20)
(0.876691 0.832936 -1.60321e-20)
(0.805345 0.622565 -2.07543e-19)
(0.880125 0.678729 1.19313e-20)
(0.939099 0.69485 0)
(0.927642 0.671659 -8.85494e-21)
(0.980682 0.310539 5.63013e-20)
(1.09594 0.280094 -5.52806e-21)
(1.01863 0.247356 8.96846e-20)
(0.965025 0.346615 -1.32217e-19)
(1.01634 0.403646 0)
(1.05602 0.390309 0)
(0.886883 0.356994 5.53876e-21)
(0.822912 0.286999 0)
(0.846403 0.272606 1.93614e-19)
(0.879386 0.279133 -5.91559e-21)
(0.906501 0.421404 7.14599e-19)
(0.86857 0.475444 1.81133e-19)
(0.874559 0.444459 -2.3653e-19)
(0.804186 0.428888 -2.53702e-19)
(0.790598 0.426755 1.74389e-19)
(0.756601 0.410603 -1.71512e-19)
(1.02768 -0.00219481 2.21617e-19)
(1.01981 -0.000412144 0)
(1.01827 0.000462314 1.47069e-19)
(1.02202 -0.00113741 -3.28429e-21)
(1.0214 0.00351048 1.59699e-19)
(1.02082 0.0101821 -3.35855e-19)
(1.02189 0.00960798 0)
(1.02058 0.0106598 -7.09546e-20)
(1.01624 0.00746947 1.78093e-19)
(1.01694 0.0103246 -8.94075e-20)
(1.01762 0.00950892 6.54476e-20)
(-0.142854 1.09559 0)
(-0.201913 1.27748 0)
(-0.033713 1.03411 0)
(-0.0514221 0.945866 0)
(0.243382 1.32787 -1.03502e-18)
(0.243882 1.26246 3.44842e-19)
(0.28357 1.5592 2.13775e-19)
(0.283743 1.3283 -2.12935e-19)
(-0.0540956 1.47423 8.44297e-19)
(0.024423 1.46049 -6.25591e-19)
(0.21818 1.25225 6.59666e-21)
(0.140434 1.18088 -8.58233e-19)
(0.0283795 1.1476 9.47749e-20)
(-0.075669 1.20947 -9.57521e-20)
(0.13228 2.46278 3.11631e-19)
(0.117714 2.48047 0)
(0.232078 2.10324 -3.0319e-20)
(0.235858 1.77983 -1.23242e-19)
(0.229819 2.0817 2.07141e-20)
(0.217048 2.44445 0)
(0.261083 2.40582 -1.35668e-19)
(0.297757 2.40952 9.63337e-20)
(0.228919 2.00608 7.79448e-20)
(0.185853 2.19596 2.62619e-20)
(0.164259 2.32966 0)
(-0.211518 2.3046 7.54619e-19)
(-0.287365 2.57494 5.1086e-19)
(-0.320768 2.44236 0)
(-0.150424 2.63985 -1.95819e-20)
(-0.0776615 2.56304 -3.62147e-19)
(-0.348219 1.5015 -2.70911e-20)
(-0.26738 1.5413 4.088e-19)
(-0.28143 1.61549 -9.46161e-20)
(-0.390276 1.60132 -1.62012e-19)
(-0.3919 1.54374 0)
(-0.250031 1.60943 0)
(-0.0991317 1.64715 -1.36478e-20)
(-0.161467 1.6803 5.7039e-21)
(-0.20717 1.63223 0)
(-0.126901 1.54509 -1.51632e-20)
(-0.0697435 1.57697 2.37129e-20)
(1.03713 0.000583884 0)
(1.04121 -0.00140791 -2.11015e-20)
(1.0477 0.0145548 -1.5592e-19)
(1.04996 0.0140082 0)
(1.05042 0.0126107 0)
(1.04234 0.00364187 -6.93518e-21)
(1.03623 0.00394886 2.59697e-19)
(1.03823 0.0113284 3.1363e-19)
(1.02917 0.018549 0)
(1.0282 0.0190229 0)
(1.04254 0.0203631 1.57125e-19)
(1.03428 0.0196084 0)
(1.03153 0.0191687 0)
(-0.162742 1.89322 0)
(-0.121959 1.81971 1.29184e-21)
(-0.134654 1.87481 5.00924e-21)
(-0.132948 1.70254 0)
(-0.15529 1.79366 -2.59896e-21)
(-0.119663 1.77067 -4.05668e-21)
(-0.112658 1.744 0)
(0.402352 1.68758 0)
(0.360015 1.30133 6.90048e-19)
(0.285631 1.35899 0)
(0.43234 1.27114 -4.73962e-19)
(0.481167 1.43957 0)
(0.441882 1.38086 4.15202e-19)
(1.02514 2.70132 -3.8633e-21)
(0.947266 2.40572 -2.71634e-19)
(0.879636 2.15151 3.1278e-19)
(0.845846 2.35615 1.11637e-19)
(0.842823 2.51945 0)
(0.90481 2.51203 0)
(0.891438 2.37021 0)
(0.895857 2.33909 -4.15052e-19)
(0.697404 2.50031 -1.73498e-21)
(0.806823 2.48801 -1.01372e-20)
(0.817244 2.46138 7.74453e-21)
(0.686232 2.36864 0)
(0.794569 2.36566 0)
(0.750445 2.37679 -2.25001e-19)
(0.77599 2.5048 0)
(0.583051 1.08607 0)
(0.478215 0.931731 2.06073e-20)
(0.520617 0.962348 2.57378e-23)
(0.505527 1.05143 0)
(0.507346 1.00767 -2.84217e-20)
(0.733128 0.865833 1.89545e-20)
(0.756663 1.00178 0)
(0.728589 0.958877 -7.1882e-20)
(0.611561 1.02415 0)
(0.6137 0.934597 0)
(1.15805 2.78078 6.66714e-20)
(1.1362 2.8458 1.32454e-19)
(0.927401 2.37491 -2.99377e-19)
(0.895277 2.34784 3.41261e-20)
(1.12077 2.74948 0)
(1.07208 2.71945 -4.67409e-20)
(1.07794 2.49156 -6.52173e-20)
(0.969961 2.22529 -2.96803e-20)
(0.482969 1.37232 0)
(0.488798 1.06698 9.40906e-20)
(0.541395 1.15012 0)
(0.857478 0.21526 0)
(0.821375 0.175925 0)
(0.780897 0.157861 0)
(0.849947 0.219756 -3.04269e-19)
(0.797187 0.213804 1.90197e-19)
(0.941611 0.0513496 -1.70255e-19)
(0.952332 0.101556 0)
(0.925473 0.104501 7.71428e-20)
(0.887694 0.0802913 3.16592e-19)
(0.881813 0.0482095 -1.94289e-19)
(1.16614 3.37629 -9.9445e-19)
(1.21193 3.29591 0)
(1.16655 3.40269 -1.95598e-18)
(0.653199 3.56324 1.67952e-18)
(0.879832 3.12814 3.94495e-19)
(0.495838 0.884822 2.06729e-19)
(0.431294 0.869931 0)
(0.357821 0.560055 -8.13159e-20)
(0.435548 0.701541 -3.64908e-19)
(0.531794 0.532111 -1.09612e-19)
(0.516561 0.554953 1.25874e-19)
(0.664908 0.528342 2.60058e-19)
(0.687656 0.539643 0)
(0.635862 0.62938 0)
(0.595171 0.557018 0)
(0.935608 0.582564 -5.61278e-20)
(0.869083 0.521566 -1.75097e-19)
(0.890195 0.554159 7.6522e-20)
(0.925049 0.495853 -1.27562e-19)
(1.02168 0.467161 0)
(1.03114 0.557419 -2.41377e-21)
(0.824072 0.388183 -3.86244e-19)
(0.824016 0.373163 5.81987e-19)
(0.777155 0.38395 3.03354e-19)
(0.773212 0.353404 -3.44788e-19)
(0.820493 0.314747 -2.55949e-19)
(0.778276 0.314789 3.14926e-19)
(1.02627 0.00366901 -1.64306e-19)
(1.02624 0.00341449 3.33883e-19)
(1.0298 -0.00241501 2.10327e-19)
(1.03106 -0.00338177 -2.53212e-19)
(1.03566 -0.000963111 0)
(1.03273 0.000700522 -4.06575e-19)
(0.147787 1.84661 -1.35759e-19)
(0.13328 1.78354 0)
(0.231905 1.80794 -6.6435e-19)
(0.232423 1.7829 5.9076e-19)
(0.26497 1.64714 -3.9938e-19)
(0.293784 1.6519 0)
(-0.305925 1.91682 0)
(-0.273321 1.74063 5.61556e-21)
(-0.216083 1.73842 -5.09914e-21)
(-0.182079 1.79623 5.23495e-21)
(-0.196574 1.9111 -2.90198e-21)
(-0.232708 1.91993 -1.25434e-20)
(0.487365 1.38195 4.43787e-19)
(0.495658 1.38413 5.14957e-19)
(0.447211 1.27324 4.36379e-19)
(0.439242 1.28989 -2.72981e-20)
(0.613526 1.29241 0)
(0.538655 1.36499 5.59679e-19)
(0.552111 1.38604 -5.41964e-19)
(0.453999 1.2611 -4.18877e-19)
(0.496893 1.22138 0)
(0.546462 1.18664 0)
(0.664555 2.45816 2.55413e-21)
(0.673339 2.4753 5.05835e-19)
(0.724321 2.49381 -3.47397e-19)
(0.629419 2.48188 -1.164e-19)
(0.565356 2.57736 9.13693e-20)
(0.513525 2.55023 -2.80976e-19)
(0.96096 2.36602 -1.68554e-19)
(1.0031 2.39129 0)
(0.895227 2.13644 -2.28392e-19)
(1.0409 2.69992 0)
(1.04014 2.68522 0)
(0.623448 2.29547 2.59229e-19)
(1.04488 3.17721 4.98077e-19)
(0.917044 3.04642 -4.48081e-19)
(0.294242 0.97503 0)
(0.347685 0.847162 -1.45829e-19)
(0.492003 0.793785 -4.89355e-19)
(0.409527 2.05162 0)
(0.473749 2.79486 -2.7466e-19)
(0.436327 2.56157 0)
(0.654025 0.672748 -2.94255e-19)
(0.726233 0.653811 3.73724e-19)
(0.760324 0.601426 2.6612e-19)
(0.656906 0.633565 4.40815e-20)
(0.717118 0.581436 -1.80323e-19)
(1.00667 2.78433 -3.78639e-19)
(1.03768 2.84169 3.07732e-19)
(0.652941 2.19863 2.23849e-20)
(0.602831 1.73758 -4.85618e-20)
(0.704015 1.93009 1.36264e-19)
(0.99048 2.46767 -6.46562e-20)
(0.992671 2.47143 -1.85844e-19)
(0.675116 1.88384 -6.76622e-21)
(0.456966 1.34896 -1.47467e-19)
)
;

boundaryField
{
    wall-4
    {
        type            noSlip;
    }
    velocity-inlet-5
    {
        type            fixedValue;
        value           uniform (1 0 0);
    }
    velocity-inlet-6
    {
        type            fixedValue;
        value           uniform (0 3 0);
    }
    pressure-outlet-7
    {
        type            zeroGradient;
    }
    wall-8
    {
        type            noSlip;
    }
    frontAndBackPlanes
    {
        type            empty;
    }
}


// ************************************************************************* //
