/*--------------------------------*- C++ -*----------------------------------*\
| =========                 |                                                 |
| \\      /  F ield         | OpenFOAM: The Open Source CFD Toolbox           |
|  \\    /   O peration     | Version:  2412                                  |
|   \\  /    A nd           | Website:  www.openfoam.com                      |
|    \\/     M anipulation  |                                                 |
\*---------------------------------------------------------------------------*/
FoamFile
{
    version     2.0;
    format      ascii;
    arch        "LSB;label=32;scalar=64";
    class       volScalarField;
    location    "6";
    object      p;
}
// * * * * * * * * * * * * * * * * * * * * * * * * * * * * * * * * * * * * * //

dimensions      [0 2 -2 0 0 0 0];

internalField   nonuniform List<scalar> 
39
(
0.0272353
0.0507368
0.0422532
0.0347365
0.0410063
0.0551076
0.0541756
0.0542708
0.0549317
0.0191928
0.0338389
0.0223219
0.0224835
0.0233073
0.0343
0.0417641
0.0388745
0.0431354
0.0176553
0.0168779
0.0209848
0.0161499
0.0129119
0.0139619
0.0489042
0.0390833
0.0414737
0.0402945
0.0452122
0.0225314
0.03709
0.0210784
0.0266484
0.0225655
0.0395458
0.0314135
0.0306902
0.0399768
0.0399291
)
;

boundaryField
{
    wall-4
    {
        type            zeroGradient;
    }
    velocity-inlet-5
    {
        type            zeroGradient;
    }
    velocity-inlet-6
    {
        type            zeroGradient;
    }
    pressure-outlet-7
    {
        type            fixedValue;
        value           nonuniform List<scalar> 0();
    }
    wall-8
    {
        type            zeroGradient;
    }
    frontAndBackPlanes
    {
        type            empty;
    }
    procBoundary17to13
    {
        type            processor;
        value           nonuniform List<scalar> 3(0.0641684 0.0645384 0.0501442);
    }
    procBoundary17to15
    {
        type            processor;
        value           nonuniform List<scalar> 5(0.0212253 0.0279543 0.0225597 0.0381385 0.0381385);
    }
    procBoundary17to16
    {
        type            processor;
        value           nonuniform List<scalar> 7(0.0318981 0.0199277 0.0175505 0.0132393 0.00653049 0.00536893 0.0137809);
    }
}


// ************************************************************************* //
