/*--------------------------------*- C++ -*----------------------------------*\
| =========                 |                                                 |
| \\      /  F ield         | OpenFOAM: The Open Source CFD Toolbox           |
|  \\    /   O peration     | Version:  2412                                  |
|   \\  /    A nd           | Website:  www.openfoam.com                      |
|    \\/     M anipulation  |                                                 |
\*---------------------------------------------------------------------------*/
FoamFile
{
    version     2.0;
    format      ascii;
    arch        "LSB;label=32;scalar=64";
    class       volVectorField;
    location    "6";
    object      U;
}
// * * * * * * * * * * * * * * * * * * * * * * * * * * * * * * * * * * * * * //

dimensions      [0 1 -1 0 0 0 0];

internalField   nonuniform List<vector> 
39
(
(0.00390396 1.64373 -2.79085e-20)
(0.00770262 1.63933 5.62222e-21)
(0.000794085 1.70389 4.01313e-20)
(-0.00836226 1.70792 2.85777e-20)
(-0.000624197 1.64326 0)
(0.00237197 1.69548 -9.39162e-20)
(-0.00277147 1.63716 9.75773e-20)
(0.00475445 1.77311 1.08848e-20)
(0.00866017 1.77119 -6.73895e-20)
(0.00324128 1.78238 1.34473e-20)
(0.00397372 1.7817 -8.49768e-22)
(0.0156457 1.7367 2.09239e-20)
(0.0112501 1.75781 -5.63571e-20)
(0.00445719 1.75941 2.61029e-20)
(0.00133614 1.76063 -8.18806e-21)
(-0.00787262 1.76286 4.17358e-20)
(0.00778245 1.76741 -1.33761e-20)
(0.00385377 1.77256 6.63955e-20)
(0.022861 1.76126 -2.235e-20)
(0.0154692 1.75317 -2.38586e-21)
(0.0216133 1.74918 0)
(0.0117598 1.77521 2.28156e-20)
(-0.00471423 1.78301 2.3818e-21)
(0.00250579 1.78147 4.18368e-21)
(0.00933649 1.77346 5.89639e-20)
(0.00105446 1.76464 -3.49814e-21)
(0.00809233 1.76588 1.56847e-20)
(0.0113742 1.77226 -3.01682e-20)
(0.0086881 1.77214 3.55998e-20)
(0.0206342 1.75423 9.10645e-21)
(0.00549555 1.74537 0)
(0.01176 1.76025 1.11998e-21)
(0.0103981 1.75204 1.33694e-20)
(0.000588727 1.77018 1.71954e-20)
(-0.00741041 1.75572 0)
(0.000851783 1.77991 -1.90996e-20)
(0.000722356 1.77239 5.01908e-21)
(0.000202845 1.74816 -2.04432e-20)
(0.0025606 1.75409 1.13158e-20)
)
;

boundaryField
{
    wall-4
    {
        type            noSlip;
    }
    velocity-inlet-5
    {
        type            fixedValue;
        value           nonuniform List<vector> 0();
    }
    velocity-inlet-6
    {
        type            fixedValue;
        value           nonuniform List<vector> 0();
    }
    pressure-outlet-7
    {
        type            zeroGradient;
    }
    wall-8
    {
        type            noSlip;
    }
    frontAndBackPlanes
    {
        type            empty;
    }
    procBoundary17to13
    {
        type            processor;
        value           nonuniform List<vector> 3((-0.00598777 1.69053 -9.7073e-21) (0.00307797 1.76762 4.64542e-20) (-0.00716301 1.76044 3.32658e-20));
    }
    procBoundary17to15
    {
        type            processor;
        value           nonuniform List<vector> 5((0.00468334 1.76119 8.96134e-24) (0.000916406 1.78613 0) (0.00411712 1.781 -9.2596e-21) (-0.0029503 1.77294 -1.1325e-20) (-0.0029503 1.77294 -1.1325e-20));
    }
    procBoundary17to16
    {
        type            processor;
        value           nonuniform List<vector> 7((0.00318454 1.7006 2.64229e-20) (-0.000432568 1.78027 0) (-0.00247469 1.78748 0) (-0.00720586 1.78726 1.72858e-20) (-0.00752771 1.78684 -1.57551e-21) (-0.00585091 1.75667 0) (0.00438246 1.74038 2.14205e-20));
    }
}


// ************************************************************************* //
