/*--------------------------------*- C++ -*----------------------------------*\
| =========                 |                                                 |
| \\      /  F ield         | OpenFOAM: The Open Source CFD Toolbox           |
|  \\    /   O peration     | Version:  2412                                  |
|   \\  /    A nd           | Website:  www.openfoam.com                      |
|    \\/     M anipulation  |                                                 |
\*---------------------------------------------------------------------------*/
FoamFile
{
    version     2.0;
    format      ascii;
    arch        "LSB;label=32;scalar=64";
    class       volScalarField;
    location    "13";
    object      p;
}
// * * * * * * * * * * * * * * * * * * * * * * * * * * * * * * * * * * * * * //

dimensions      [0 2 -2 0 0 0 0];

internalField   nonuniform List<scalar> 
918
(
0.233594
0.926899
0.00680702
0.233092
0.000333274
0.894036
-0.824968
0.421254
0.21358
-0.139149
0.0191724
0.204994
0.754618
0.521934
-1.45743
0.014377
0.37245
-0.665929
0.212062
0.00620757
0.496273
0.220244
0.223312
0.214006
0.269263
0.512663
0.635307
0.00127682
-0.00294117
-0.00204192
0.00366221
-0.00223741
0.0031982
0.777657
0.82877
0.851427
0.182693
0.0104417
-0.670916
-0.753544
-0.731224
-0.871194
0.407435
0.412702
-0.486213
0.419378
0.433707
0.201687
0.212952
0.213994
0.214882
0.214066
0.215348
0.284051
-0.165959
-0.229643
-0.0803332
-0.0600456
0.0767945
0.0204812
0.0158554
0.0213143
0.0225283
0.143382
0.20175
0.197709
0.20915
0.218722
0.866449
0.838323
0.864461
0.778296
0.794743
0.732546
0.705011
0.541536
0.563051
0.508067
0.495512
-1.90082
-2.87712
-0.855193
-0.593842
0.00152611
0.0211078
0.0262825
0.352184
0.360404
0.364991
0.377204
0.777535
-0.643657
-0.778901
0.211787
0.21054
0.220173
0.220957
0.216998
0.216222
0.0135986
0.020966
-0.00335705
0.00557752
0.0034771
0.47532
0.469446
0.214757
0.2117
0.225977
0.250118
0.237595
-0.0139999
0.284753
0.31263
0.315231
0.492077
0.49163
0.498619
0.608915
0.571783
0.672552
0.695856
0.00678684
0.00165222
0.0110248
0.00724086
0.0106799
0.180353
0.175289
0.193874
0.184422
0.187724
-0.0700659
-0.199295
0.089051
0.116037
-0.583482
-0.660536
-0.73594
-0.761509
-0.855363
0.174409
0.395464
0.398416
-0.501693
-0.413045
-0.569258
-0.337504
-0.413073
0.190486
0.198973
0.193498
0.208485
0.203518
0.204454
0.217254
0.214454
0.215934
0.308752
0.376468
0.245717
0.223009
-0.456343
-0.297205
-0.438785
-0.0314218
-0.0210926
0.0865554
0.099832
0.0667368
0.065016
-0.00346156
0.0136025
0.000220545
0.0243473
0.0265974
0.137442
0.127776
0.152013
0.159055
0.192821
0.193322
0.196112
0.196669
0.655726
0.678067
0.685613
0.65922
-3.89093
-6.71295
-0.257719
-0.112982
0.00241551
0.00292872
0.00144689
0.004364
0.0034775
0.00107749
0.040722
0.0380161
0.0298012
0.0343377
0.340474
0.345783
0.747743
0.81671
0.683229
0.696995
0.19975
0.202992
0.207688
0.20346
0.02649
0.0226436
0.0270318
0.434111
0.45288
0.455177
-0.047975
-0.1358
0.034018
0.0609192
0.32953
0.313305
0.334403
0.380697
0.417976
0.703025
0.721433
0.719887
0.728384
0.772263
0.788577
0.753921
0.164257
0.173377
0.169175
0.198995
0.195352
0.19641
0.191875
0.194938
0.192804
-0.351583
-0.732759
0.215197
0.207195
0.159684
0.174467
0.240238
0.331834
0.373864
0.383645
0.390718
-0.271839
-0.340983
0.187295
0.171732
0.0865018
0.114544
0.0995807
0.626904
0.587091
0.63712
0.610594
0.571984
0.598486
-0.681944
-2.21741
-1.31124
0.254767
0.0582922
0.150959
0.0567626
0.0448256
0.0481002
0.736674
0.769786
0.422592
0.567897
0.532757
0.457097
0.489094
0.545408
0.468995
0.50504
0.541498
0.521324
0.143733
0.217644
0.141518
0.419803
0.505238
-0.160305
-0.20618
-0.268241
0.110972
0.143835
0.127234
0.661213
0.56594
0.640089
0.211512
0.211954
0.0110271
0.0183634
0.215988
0.216281
0.00751783
0.00825911
0.129613
-1.16768
-0.169098
0.204027
0.194488
0.21145
-0.139189
0.299003
0.0190633
0.0878676
0.05879
0.201393
0.153825
0.11802
0.0072246
0.0196698
0.0147444
-0.433111
0.20899
0.207088
0.211012
0.212174
0.212988
0.00916794
0.0101137
0.00738096
0.0121346
0.0103292
0.00969375
0.180495
0.191334
-0.48422
0.211299
0.213385
0.21333
0.206793
0.211907
0.209961
0.0154311
0.0107063
0.0105332
-0.0626358
0.0538728
0.389839
0.502648
0.337772
0.110557
-0.134878
0.284699
0.35458
0.249743
0.420045
0.376999
0.402764
-0.113043
-0.259006
-0.0983569
-0.151602
0.202031
0.201147
0.19344
0.189763
0.20678
0.205173
0.209143
0.207031
0.20944
0.210381
-0.0798026
-0.0644962
-0.181713
-0.247924
0.326316
0.405564
0.207936
0.241785
0.139598
0.0229137
0.0226316
0.0187532
0.0166864
0.0525233
0.0627384
0.0779421
0.0681916
0.0482655
0.0460522
0.0512175
0.0568531
0.061271
0.196274
0.196384
0.200765
0.207877
0.16069
0.164523
0.135795
0.151517
0.14246
0.0861187
0.117732
0.097237
0.00850804
0.00955198
0.00804945
0.0236805
0.028015
0.0150863
0.0130014
0.0130704
0.010853
0.0114818
0.0188214
0.0219255
-0.447291
-0.541829
0.750246
0.635079
-0.455578
0.197823
0.203992
0.201284
0.206377
0.209056
0.209527
0.207561
0.204953
0.192301
0.193562
0.190258
0.190926
-0.424415
-0.570072
-0.389874
-0.449573
-0.17313
0.316473
0.0658169
0.00497501
0.00199439
0.213791
0.590188
0.406458
0.455608
0.475222
-0.669844
-0.265499
-0.599441
0.0161527
-0.163706
0.390235
0.442608
0.465196
0.411237
0.359217
-0.422993
0.197108
-0.361365
-0.330428
-0.144796
-0.227873
0.426973
0.36128
0.367002
0.389972
0.41406
0.364425
0.346149
0.342396
0.381864
0.386732
0.178326
-0.0246974
-0.073284
-0.106752
0.341396
0.221441
0.276022
0.196545
0.196391
0.199409
0.198492
0.183451
0.189039
0.184343
0.190036
0.192027
0.202518
0.202151
0.197938
0.200383
-0.0362636
-0.0234154
-0.149007
-0.362767
-0.250229
-0.348454
-0.222436
0.0169949
0.0436902
-0.135877
0.134873
-0.117977
-0.419911
-0.301893
-0.490893
-0.166265
-0.286931
0.0934856
0.148699
0.159562
0.137064
0.201442
0.185609
0.0377974
0.0460028
0.0291712
0.0284919
0.0919156
0.111838
0.108998
0.0467554
0.0489724
0.0253354
0.0263186
0.0633744
0.0394226
0.0503025
0.0619777
0.0210932
0.0238726
0.0285909
0.0377658
0.0378343
0.0404779
0.191491
0.193752
0.19214
0.203913
0.215308
0.228824
0.199558
0.177523
0.17023
0.173925
0.151115
0.157466
0.156317
0.164916
0.183105
0.188959
0.18831
0.189931
0.176275
0.17796
0.165142
0.168821
0.152677
0.136581
0.124592
0.0183421
0.0115012
0.0151631
0.0155428
0.0106247
0.0127053
0.0417461
0.0331973
0.0371226
0.0326787
0.0367639
0.017
0.0179852
-0.555684
-0.572041
-0.519456
-0.562542
-0.583884
0.662572
0.70273
0.586912
0.290444
0.278403
0.54878
0.716325
0.381851
0.459752
0.483773
0.113681
0.415817
0.204667
0.203363
0.200292
0.200746
0.202822
-0.318952
-0.222166
-0.223605
-0.176358
-0.0379063
0.0651869
0.135633
-0.19079
-0.0446984
0.0117372
0.309916
0.326458
0.272522
0.297121
0.295387
0.129503
0.20023
0.246311
0.212764
0.25066
0.269451
0.232103
0.261018
0.214722
0.175681
0.176095
0.123428
0.139426
0.120761
0.105024
0.192942
0.173038
0.182396
0.175378
0.19341
0.225037
0.216632
0.238534
0.254975
0.183424
0.146116
0.154437
0.182731
0.143626
0.154888
0.169724
-0.0895196
-0.185394
-0.135818
-0.439284
-0.326744
-0.338772
-0.386806
-0.367282
-0.0880821
-0.788605
-0.736525
-1.37412
0.131127
0.624437
0.383931
0.351965
0.410926
0.384811
0.38336
0.42188
0.428404
0.333362
0.352306
0.354547
0.305898
0.332393
0.361355
0.358156
0.174939
0.0686723
0.0584116
0.0278074
-0.0983432
-0.0699534
0.142227
0.0655464
-0.00946404
-1.35586e-05
0.160714
0.06143
0.119106
0.155689
0.0880192
0.0472764
0.236592
0.302044
0.297485
0.265169
0.187507
0.19984
0.223617
0.255061
0.283522
0.320525
0.190982
0.195368
0.19724
0.195275
0.191236
0.194341
0.193739
0.195952
0.196364
0.198966
0.19811
0.014958
0.018033
-0.00370246
0.00452497
-0.0159496
-0.0456885
-0.00302634
-0.0617106
0.0285348
0.0220209
-0.0102401
-0.0110406
-0.00148487
0.0122649
0.116257
0.131373
0.115165
0.0663145
0.0294684
0.285459
0.240439
0.176481
0.0812062
0.158043
0.254595
0.0724373
0.0828562
0.0709757
0.0905069
0.0856335
0.0318272
0.0282458
0.0315518
0.0412144
0.0377471
0.0287187
0.023618
0.0254014
0.0277024
0.0268746
0.0266741
0.177103
0.173264
0.175416
0.169294
0.167949
0.180403
0.183251
0.184549
0.189145
0.190731
0.182927
0.186361
0.189732
0.0278015
0.0215566
0.0235396
0.0238714
0.0232788
0.02036
0.0208146
-0.505747
-0.576019
-0.882272
-0.491978
-0.514593
-0.51886
0.188389
0.0327966
0.184896
0.286246
0.176248
0.0962425
0.142482
0.219659
-0.0531696
0.0377947
-0.109832
0.571501
0.390631
0.553379
0.0791058
-0.106979
0.0264688
0.0859865
-0.0990103
-0.0433028
-0.00172065
-0.110731
-0.0824288
-0.0541617
0.0418907
-0.0408013
-0.0596495
-0.237393
-0.0197616
-0.0155668
-0.0435602
0.089201
0.15425
0.0313538
-0.114797
-0.169245
0.300207
0.319156
0.334224
0.310387
0.32864
0.25808
0.247807
0.267158
0.277068
0.270978
-1.11605
-0.835663
-1.76237
-1.07074
-0.654317
0.155537
0.116966
0.396391
0.299936
0.385352
0.367584
0.334009
0.298298
0.299658
0.337801
0.0566571
0.160217
0.135033
0.140669
0.04778
-0.0129445
0.267759
0.264636
0.30072
0.325396
0.290604
0.327811
0.187917
0.187293
0.188396
0.184966
0.181178
0.183006
0.0796481
0.0642669
0.0645802
0.0482331
0.0429188
0.0529711
0.0321051
0.0287965
0.0258856
0.0263783
0.029863
0.0337399
-0.177929
-0.340632
-0.439101
-0.476155
-0.335851
-0.436802
-0.428673
-0.391984
-0.262926
-0.264959
-0.0431133
0.246415
-0.0167268
0.241776
-0.0770354
0.118578
0.216852
0.181931
0.222971
0.083466
0.180884
-0.200175
-0.645154
-0.56682
0.424053
0.434252
0.206285
-0.00597977
-0.213475
0.00383941
0.211356
0.154745
0.195979
0.261426
0.259268
-0.357026
-0.276409
-0.0969571
0.147478
-0.149049
-0.146807
-0.160376
0.00126238
-0.0680046
)
;

boundaryField
{
    wall-4
    {
        type            zeroGradient;
    }
    velocity-inlet-5
    {
        type            zeroGradient;
    }
    velocity-inlet-6
    {
        type            zeroGradient;
    }
    pressure-outlet-7
    {
        type            fixedValue;
        value           uniform 0;
    }
    wall-8
    {
        type            zeroGradient;
    }
    frontAndBackPlanes
    {
        type            empty;
    }
}


// ************************************************************************* //
