/*--------------------------------*- C++ -*----------------------------------*\
| =========                 |                                                 |
| \\      /  F ield         | OpenFOAM: The Open Source CFD Toolbox           |
|  \\    /   O peration     | Version:  2412                                  |
|   \\  /    A nd           | Website:  www.openfoam.com                      |
|    \\/     M anipulation  |                                                 |
\*---------------------------------------------------------------------------*/
FoamFile
{
    version     2.0;
    format      ascii;
    arch        "LSB;label=32;scalar=64";
    class       surfaceScalarField;
    location    "13";
    object      phi;
}
// * * * * * * * * * * * * * * * * * * * * * * * * * * * * * * * * * * * * * //

dimensions      [0 3 -1 0 0 0 0];

oriented        oriented;

internalField   nonuniform List<scalar> 
1300
(
3.75095
5.62643
-6.21221
3.75095
-6.06018
5.62643
-4.48742
4.48742
-1.46508
1.46508
1.87688
1.87407
-4.45581
4.45581
-4.77205
4.77205
-2.82411
2.82411
-5.24641
5.24641
-5.06741
5.06741
4.69023
-4.69023
-4.91754
4.91754
-1.88292
1.88292
-3.97324
3.97324
3.17632
-3.17632
-5.08785
5.08785
-0.517041
0.517041
-0.554548
4.3055
3.1964
3.1964
-2.5463
2.5463
-4.84975
4.84975
6.21822
-6.21822
9.42879
-9.42879
-3.21658
-3.39476
1.3523
-8.11582
-4.70789
-4.70789
-8.44042
8.44042
-2.81399
2.81244
2.93958
-2.93958
-1.68396
1.68396
-4.47907
-0.00834645
-4.47907
4.46536
0.02206
4.46536
-1.59434
0.129262
-1.59434
4.09531
-4.09531
1.29611
0.16897
1.29611
3.06345
-3.06345
-1.87714
3.75402
1.87382
-1.87285
6.17835
-1.8781
3.75217
-5.00987
5.00987
-4.29299
-0.162817
-4.29299
4.58244
-0.12663
4.58244
-5.22845
5.22845
-4.72706
-0.0449946
-4.72706
4.84101
-0.0689609
4.84101
3.04092
-3.04092
-2.85573
0.0316278
-2.85573
2.77879
0.0453142
2.77879
0.353586
5.27284
-5.98002
8.79246
-5.27284
0.0264373
5.20849
0.0379156
5.20849
-5.10596
0.038555
-5.10596
5.01017
0.0572385
5.01017
4.78514
-0.094916
4.78514
-4.80229
0.11206
-4.80229
-3.32406
-3.36331
-5.0129
0.095361
-5.0129
-1.92901
0.0460918
-1.92901
1.84056
0.0423577
1.84056
-3.50752
3.50752
-4.08978
0.116534
-4.08978
3.1301
0.0462267
3.1301
1.8682
1.88275
5.61916
-5.61916
2.44283
-5.0514
-0.0364471
-5.0514
-5.12804
-4.30076
5.12804
-0.0401879
-0.822864
0.305823
-0.822864
3.15778
0.0386231
3.15778
2.70059
0.0781967
-2.70059
0.154297
3.43221
-3.43221
1.90315
0.643149
1.90315
-5.57288
5.57288
4.94786
0.0623084
-4.94786
0.098106
6.15715
0.0610761
6.15715
-6.19948
-0.0187422
-6.19948
3.38123
-6.77599
-3.39835
4.81255
0.104985
-4.81255
0.104664
2.95063
-0.0110511
2.95063
-2.90111
2.90111
-2.96435
0.024775
-2.96435
-2.11811
0.434154
-2.11811
1.36472
0.31924
1.36472
-4.39401
-0.0850675
-4.39401
-4.31581
0.226036
4.31581
0.149546
0.794016
-0.794016
-1.71374
0.119395
-1.71374
-4.23723
-0.156771
4.23723
-0.141921
-3.99186
-0.10345
-3.99186
-3.01037
0.046013
3.01037
0.0530851
3.11554
0.042238
-3.11554
0.0520907
-1.87122
3.75397
-1.87973
3.75355
-4.79737
-0.212508
-4.79737
5.14879
-0.138914
5.14879
4.09866
-0.125412
-4.09866
-0.194335
4.6553
-0.0728674
4.6553
-5.22955
0.00109144
-5.22955
5.24076
-0.0123058
5.24076
4.70277
-0.0474674
-4.70277
-0.0242843
4.92313
-0.0821133
4.92313
3.09261
-0.0516924
3.09261
-3.00672
-0.0342029
-3.00672
2.88358
-2.88358
2.87658
0.00699553
-2.87658
0.0208485
-11.1327
11.114
-0.0349664
-11.0977
5.17352
5.17352
4.20294
0.582206
4.20294
-5.01094
0.208652
-5.01094
3.33277
-6.73112
3.37616
-6.70022
3.35278
-11.4686
3.33742
-6.70074
5.1652
-5.1652
5.0941
0.0710994
-5.0941
0.0812073
-1.97177
0.0427606
-1.97177
-3.02615
-0.481367
-3.02615
3.94495
-0.437432
3.94495
-3.02235
3.02235
-3.07792
0.0555698
3.07792
0.052182
4.99615
-0.0730267
-4.99615
-0.0552496
1.07047
0.225641
-1.07047
0.247605
3.6246
-0.192391
3.6246
-3.2631
-0.169104
-3.2631
-1.93631
-0.0354571
1.93631
-0.033163
-5.81843
0.245547
-5.81843
-11.1908
0.0930567
-11.1529
-6.10642
-6.10642
2.334
11.1265
-2.97478
-0.0319395
2.97478
-0.0241488
2.95653
0.0658145
-2.95653
0.0554206
-2.88344
-0.000139424
2.88344
0.0176725
-2.52871
0.410602
-2.52871
-0.986878
0.986878
-1.14659
0.159715
1.14659
0.218124
1.0606
-0.266582
1.0606
1.77496
0.0656032
-1.77496
0.0612208
-3.89434
-0.0975277
-3.89434
5.22767
-0.0788775
5.22767
-3.15366
-0.109442
3.15366
-0.0610453
-0.0333294
11.1473
-5.14019
0.0342347
5.14019
-11.2084
11.2426
-3.22838
0.699665
3.22838
0.974561
5.29722
0.275658
-5.29722
0.286282
5.2181
0.0226602
-5.2181
0.0528964
-2.50036
-0.525794
-2.50036
-4.4218
-0.375571
4.4218
-0.476845
-11.4756
-0.201535
11.6771
-11.4184
6.01996
0.137185
-6.01996
11.3798
-0.789747
-0.00426884
0.789747
0.197131
1.45974
-0.39914
1.45974
3.79056
-0.16596
-3.79056
-0.103779
-5.24179
0.0122406
5.24179
-0.014121
-1.93859
-0.561771
1.93859
-0.478849
-4.26689
4.30551
1.91146
-3.36508
-3.41091
-7.66584
1.85196
1.90202
4.29479
-7.07623
-4.39237
-6.97157
7.27699
-6.99071
-9.31565
9.22074
7.44133
-7.54478
-5.7734
5.82558
6.45962
-6.40654
1.88053
1.8735
9.0421
-9.20492
-11.9289
11.7164
10.1262
-10.1712
11.0178
-11.0167
-12.5589
12.5816
-5.74833
5.77996
-6.60764
6.57344
-6.78849
6.72744
-3.29147
-3.40874
9.1409
-9.04553
11.7508
-11.7873
-7.25661
7.37314
3.38644
0.919072
3.42868
-1.88139
3.76191
-1.87078
3.78225
3.39136
-6.68283
3.33976
-6.75067
6.07425
5.67656
-6.03407
-1.63178
-5.85956
5.84851
-5.85202
5.8697
8.86547
-8.87382
-1.88471
3.75821
-1.86884
3.77085
-3.4192
-2.3542
3.37298
0.921811
5.60197
3.53892
-5.70696
-1.26461
-7.63656
7.4706
-7.91828
7.74917
-0.45907
5.82711
-5.36804
4.39068
-1.55288
7.37998
5.72411
5.93277
5.86959
-5.59393
1.12112
-6.48916
-6.39105
-2.71539
2.83479
2.65511
-2.48614
5.86931
1.57202
5.72738
-5.42808
-2.1167
-5.52561
3.81241
2.01317
3.86798
4.02327
2.43635
4.06928
3.03346
-3.03656
0.00310247
-3.06011
6.09357
0.721643
-5.41431
-4.4925
6.33294
2.70916
6.20631
-5.52736
-3.67756
-5.7217
-7.28146
-4.64741
-7.65703
7.36521
4.35116
7.22629
-8.36843
8.35431
6.75563
3.37056
6.68667
-6.64283
-3.52835
-6.66712
10.5863
-2.56915
-8.01718
-7.06506
-5.49388
7.07737
3.94043
7.61894
4.96267
7.67183
3.56936
7.01697
-7.50979
2.01591
-3.84142
-1.90691
-3.82057
3.74011
2.03984
3.78543
-4.13142
-2.47622
-4.16336
-4.19937
-2.58911
4.25107
2.32237
-4.31585
-3.60243
4.42529
2.30215
3.07823
-7.4706
3.62251
-7.03126
-6.3719
-2.67364
-6.29069
4.13431
2.61144
-6.74575
-2.54852
10.931
-5.25441
9.29919
-7.29759
-4.48967
-7.35284
-6.04326
-1.21335
-5.81722
-8.55376
8.02797
-7.80047
7.36304
14.695
-6.16438
-8.53058
-3.96996
-2.43658
3.91787
-0.489187
-3.71296
3.71606
0.0489575
3.8312
4.75028
4.26109
-3.87796
-1.97406
-3.82254
3.86815
2.00154
3.86802
6.58106
2.28441
6.60312
-6.44082
-2.433
-6.52589
9.0179
-8.58374
2.91769
-2.95315
5.16372
2.58545
-4.97133
-2.66523
6.00888
-3.03995
-2.96892
-12.232
10.6071
1.62496
-4.85204
-0.461355
0.0556862
-5.51932
-3.79633
5.40726
0.525507
11.1326
7.33624
-5.51528
5.76083
6.16185
6.22415
-0.166898
5.84656
-5.1469
5.15646
-2.2557
-2.90076
5.25714
-5.41392
-1.26874
-5.29859
4.02985
0.313469
1.88896
-1.58314
-2.11623
-0.599161
-2.05501
1.59399
1.06113
1.81963
1.00395
1.83084
-2.93097
0.526044
2.40493
-1.92702
-1.9601
-3.59277
-0.908395
4.50117
5.45536
2.01524
-5.35158
-0.17403
2.76974
-2.72738
-0.87806
-2.71471
1.92345
-2.80151
-3.4372
-1.79541
5.23261
-3.36994
-0.452606
3.30412
0.563861
-3.74809
-2.11147
3.72332
0.345964
-3.12158
6.23038
-3.1088
-5.09564
2.53167
3.5619
4.54484
-4.8155
2.44895
2.36655
-1.2536
5.61654
0.589772
5.54368
-7.72275
4.04519
5.45632
1.91683
-5.33091
-0.390792
-8.11354
10.8585
-8.02942
-2.82909
6.72381
4.1347
6.41532
8.27963
-6.38597
12.8013
1.13245
-9.16187
6.98109
-5.06426
3.71378
-8.77805
-11.9934
2.83155
-7.74996
8.83806
-1.0881
-2.3822
-5.98623
10.1322
-1.16119
-8.97097
6.0651
-5.49486
-5.28766
10.7825
-8.06401
8.81601
-2.83833
-5.97769
-6.99013
-4.02658
6.97789
1.37642
-9.99563
12.0115
-2.97867
5.89825
0.78842
5.81614
4.18301
-6.01229
1.82928
3.881
-6.71933
3.20004
-9.21233
-4.93068
9.6161
-4.68541
-7.60432
-6.81317
-0.791153
2.029
9.98254
-6.99167
5.36092
1.63074
3.34332
0.524691
-3.35032
-0.470248
0.350696
4.44091
-4.7916
4.13612
4.21432
3.36608
1.07482
3.81993
2.02859
-3.79578
-0.367581
-4.02114
1.43202
-1.69877
-3.54101
4.97303
-3.95907
0.418069
-2.64209
-3.48927
6.13137
-4.549
3.08625
3.14412
5.08779
-4.85024
1.36097
-2.40404
-2.4462
2.5981
-4.29687
1.8871
3.08593
4.18925
0.58682
4.89657
4.71953
-7.50801
0.476752
8.25845
-6.99384
1.72405
5.94778
-7.08498
0.271811
-6.01888
1.09559
-6.35
-5.65016
4.23672
-5.45007
-4.54133
5.73946
0.863657
-5.88901
0.071786
-5.84368
-2.71008
-6.40545
-2.26832
-5.53215
-8.65429
-2.01446
-6.63984
6.01351
-5.29651
-2.36052
5.77335
1.58968
-7.27852
7.27426
-7.5933
7.19416
0.0883516
3.62771
4.34944
1.91286
-2.37411
4.28697
-4.96354
7.24796
-8.65884
3.6953
4.07393
-6.50692
-4.58491
4.92657
4.09133
5.24581
9.05824
-10.4975
1.43924
-10.7259
12.7869
-2.061
-16.6379
5.91202
-7.57964
2.64662
0.271067
2.68938
0.676217
2.35158
-3.0278
-2.27693
-2.31009
-2.26179
-3.25904
5.52083
1.185
-3.28847
2.10347
-3.41725
4.60224
-0.0750263
-3.21344
5.12274
-2.77116
5.39381
-3.49227
1.90154
3.23772
5.47523
-2.23751
4.16636
-1.58091
1.75791
-3.99542
-1.50113
-2.96735
5.0072
-3.16401
3.58208
-0.215594
3.79767
-4.00443
0.964475
-0.638348
3.57597
3.73027
4.10673
-3.03191
2.85761
-4.43852
-1.13781
-3.8517
-0.765765
-0.75935
-3.59687
4.35622
5.85359
-6.61294
-5.38583
9.58995
-4.20412
7.71241
-5.46619
-2.24622
-4.2592
-4.32455
3.8486
1.99797
9.71038
0.172608
-5.6388
-4.97429
-3.99973
3.13368
2.02277
-2.06282
3.68778
2.00714
-0.118171
0.642391
1.17724
1.89858
-1.25619
0.158301
1.74028
-1.42484
2.04381
0.725934
-2.10941
0.0544015
-1.42109
3.34454
0.983835
-2.04496
0.788773
1.08841
-3.34411
4.65976
-2.27712
-2.38264
5.74816
1.224
-3.50112
4.07459
-3.76112
2.28492
-3.19331
-1.2162
-4.97732
-3.4053
-2.45289
4.55636
-3.06795
5.08319
1.11916
-4.90915
6.02831
-3.44736
1.65194
-3.06451
3.79045
-1.15489
-1.90963
2.62085
2.61176
-2.78995
0.0752379
-0.1691
2.19509
-2.36419
-0.606419
-2.53344
-4.55325
4.89921
-2.17008
4.61902
2.1169
-1.927
6.54603
1.83347
-3.76047
-3.26217
-3.71478
-1.39392
3.15092
-1.05683
-5.61028
-7.03452
5.65775
-0.114075
-8.14848
10.0781
-1.92963
-5.43932
1.39413
5.32968
-7.7305
1.01117
-4.53046
5.54765
6.13742
6.02335
-9.48964
0.518665
-5.13848
2.24702
-7.38549
6.38171
-5.12124
7.95279
-9.26973
6.90921
-7.68005
5.1237
-2.2618
5.60094
-3.77165
2.41624
-6.44282
-5.0664
7.00804
-3.63748
7.79646
-4.16637
11.9628
-7.14504
7.00664
4.9562
-1.45715
-5.89569
-6.85405
5.39691
0.152584
5.96872
4.92284
-2.89425
4.55526
2.21783
-4.62188
-2.07904
-6.47484
1.85297
-3.33072
-1.8795
3.73247
3.20829
3.73298
1.28627
-3.26273
6.74098
-7.53213
-2.05556
-3.59459
6.76617
-1.36926
4.0735
-7.6681
-2.2765
6.20594
-0.542619
-5.66332
-0.0415648
-4.49976
0.774165
-5.27393
4.67591
-4.60412
2.17754
-9.75718
-5.10099
-4.90385
-2.40214
-5.19117
-7.72852
5.32639
-1.81651
5.45775
-8.81625
8.27363
-3.97062
9.297
-5.40091
-1.00454
5.87976
1.3144
10.6114
0.0198739
-4.60479
-1.79998
3.82507
-2.02509
1.3337
-3.577
0.248077
2.44364
3.30452
-6.47349
-0.0334331
-4.63822
-3.8197
7.91103
5.77025
11.6238
1.12635
9.14347
-1.23244
10.2698
4.01337
4.2315
-3.27717
4.7164
1.07905
4.77435
-0.851671
2.75321
1.83771
1.8838
0.843581
2.27728
1.45299
3.24176
0.213955
-2.09614
4.69272
-8.69245
-0.946074
-8.11025
1.11049
5.77858
-4.66809
3.03558
-1.0128
1.01049
0.208475
-1.83756
1.62909
-2.69228
-1.95574
-0.215459
-1.50016
2.28894
1.84438
-2.07348
-0.618805
0.265366
-3.67067
2.92795
-2.85271
-0.240952
5.78736
-2.65875
0.294565
-1.00681
-2.23887
-2.83804
2.78363
6.24665
0.299374
3.13786
5.19859
3.08711
0.192862
5.34077
-6.42887
-3.87156
-5.91021
0.471507
5.80119
2.1084
7.87414
7.0646
5.69534
-1.97276
-9.50488
8.00119
-3.28479
5.9402
-0.276874
-4.99706
4.53355
2.71441
-5.39721
0.793084
-4.20397
-7.48876
-0.509889
8.78352
-10.1015
9.09698
6.38689
0.252943
-4.22688
-0.676974
4.06717
0.164331
10.4342
-1.15585
-6.97221
8.12806
-4.62273
3.67666
0.847446
2.84033
2.47654
1.46373
-5.50848
-10.1766
-1.76114
-1.58296
-4.14378
0.35739
-2.20177
6.28037
-2.60371
4.03415
5.52435
6.53483
-2.32866
-4.28428
6.53278
-2.49863
4.0362
)
;

boundaryField
{
    wall-4
    {
        type            calculated;
        value           uniform 0;
    }
    velocity-inlet-5
    {
        type            calculated;
        value           uniform -3.75095;
    }
    velocity-inlet-6
    {
        type            calculated;
        value           uniform -5.62643;
    }
    pressure-outlet-7
    {
        type            calculated;
        value           nonuniform List<scalar> 8(6.21221 6.06018 6.61134 6.76352 6.68737 6.77958 6.70893 6.6902);
    }
    wall-8
    {
        type            calculated;
        value           uniform 0;
    }
    frontAndBackPlanes
    {
        type            empty;
    }
}


// ************************************************************************* //
