/*--------------------------------*- C++ -*----------------------------------*\
| =========                 |                                                 |
| \\      /  F ield         | OpenFOAM: The Open Source CFD Toolbox           |
|  \\    /   O peration     | Version:  2412                                  |
|   \\  /    A nd           | Website:  www.openfoam.com                      |
|    \\/     M anipulation  |                                                 |
\*---------------------------------------------------------------------------*/
FoamFile
{
    version     2.0;
    format      ascii;
    arch        "LSB;label=32;scalar=64";
    class       volVectorField;
    location    "13";
    object      U;
}
// * * * * * * * * * * * * * * * * * * * * * * * * * * * * * * * * * * * * * //

dimensions      [0 1 -1 0 0 0 0];

internalField   nonuniform List<vector> 
918
(
(0.985272 -0.000406495 0)
(0.0050007 2.96626 0)
(-0.00397991 1.64801 0)
(0.979779 0.0020621 0)
(0.000734517 1.61395 1.23907e-21)
(-0.00702861 2.94878 -1.89941e-18)
(0.850193 1.18289 7.2723e-19)
(0.500544 0.239144 -9.21234e-21)
(0.999966 -0.000451373 0)
(0.0183297 1.30913 0)
(-0.00805594 1.38833 0)
(0.831965 -0.00489978 0)
(0.0110956 2.93031 0)
(0.00165376 2.79448 0)
(-0.0182812 3.17263 1.08259e-18)
(-0.00332335 1.52809 -1.65245e-20)
(0.597102 0.106387 5.71979e-19)
(0.184703 1.26451 5.58799e-19)
(0.965732 0.00553792 0)
(0.00143049 1.50626 0)
(0.171839 0.276612 -4.88778e-19)
(1.00132 -0.00524441 0)
(1.00011 -0.0100299 0)
(0.975462 -0.00668497 0)
(0.748998 -0.0246683 0)
(0.0177566 2.62909 0)
(-0.0152393 2.91024 6.58906e-19)
(-0.0103084 1.6741 0)
(-0.0104799 1.76579 0)
(-0.00939085 1.67115 0)
(0.00373157 1.80256 0)
(0.00191928 1.62821 -9.80946e-22)
(-0.00181326 1.53843 0)
(-0.0206145 2.98758 -6.65495e-23)
(-0.0167088 3.00531 1.47651e-18)
(0.00210607 3.00022 0)
(0.874871 -0.00513453 0)
(0.372047 0.893397 -2.78234e-20)
(0.842241 1.19806 -1.01269e-18)
(0.985328 1.05478 9.53077e-19)
(0.708652 1.2879 -1.70352e-19)
(0.695809 1.26666 9.47265e-19)
(0.533657 0.309084 8.98836e-21)
(0.526575 0.21193 0)
(1.19485 0.572616 0)
(0.49339 0.32521 4.17037e-20)
(0.458771 0.23596 -4.32731e-20)
(0.918496 -0.00735828 0)
(1.00044 1.09493e-05 0)
(0.999956 0.00035796 0)
(1.00428 -0.00776536 0)
(1.00055 -0.000681722 0)
(1.00012 0.000156344 0)
(0.039091 1.58174 -5.45627e-19)
(-0.00712323 1.40489 0)
(0.0215536 1.25462 0)
(-0.00992223 1.46848 0)
(0.0180743 1.33117 0)
(0.00190083 1.57412 0)
(-0.0107649 1.53421 0)
(0.00136354 1.37913 0)
(-0.0154196 1.56007 0)
(-0.0100382 1.41227 0)
(0.905965 -0.000411801 0)
(0.906684 0.00680387 0)
(0.845428 0.00103167 0)
(0.899419 0.0102415 0)
(0.819915 -0.00626097 0)
(0.0147086 3.00039 6.95877e-19)
(0.0115416 3.00786 0)
(0.00614451 3.00286 0)
(0.0135712 2.99732 7.76768e-24)
(0.00798714 2.95845 -1.03425e-18)
(0.0145186 2.98207 0)
(0.0107763 2.90363 0)
(0.0254399 2.93 1.4015e-24)
(0.00392976 2.82511 0)
(0.032284 2.91509 0)
(-0.0071281 2.74438 0)
(0.311378 3.57268 0)
(-0.132456 3.65531 0)
(0.141027 3.2632 1.00752e-18)
(-0.00957933 2.99434 0)
(-0.00429381 1.78292 0)
(-0.00337032 1.64734 1.63017e-20)
(-0.00318909 1.54101 -2.55324e-20)
(0.658417 0.164706 -1.96488e-19)
(0.618372 0.0710694 -1.89884e-19)
(0.625851 0.196858 -5.88447e-19)
(0.581565 0.133253 -3.93027e-19)
(0.276153 1.0933 0)
(0.21517 1.29403 -5.85425e-19)
(0.342556 1.27465 9.77287e-19)
(0.988566 0.00915899 0)
(0.944169 0.00811287 0)
(1.00033 0.000635405 0)
(1.0027 0.00946945 0)
(1.00234 0.00853049 -1.1005e-18)
(0.99192 0.00972138 8.31423e-19)
(-0.00689954 1.61423 0)
(-0.00392083 1.50106 0)
(-0.0135492 1.68372 0)
(-0.00940836 1.63697 0)
(0.00142603 1.52063 0)
(0.25364 0.286287 1.50667e-19)
(0.29416 0.267834 0)
(0.993074 -0.00866029 0)
(0.954003 -0.00631609 0)
(0.875425 0.0197472 0)
(0.84035 0.0327659 0)
(0.795935 -0.00549545 0)
(1.02613 -0.00429701 0)
(0.789949 0.036309 0)
(0.670368 -0.0174535 7.72324e-19)
(-0.0346907 2.86757 3.41917e-19)
(0.0440502 2.90779 0)
(0.0579978 2.882 0)
(-0.00557986 2.69545 0)
(-0.0130971 2.98511 6.06621e-19)
(-0.0184019 2.8956 0)
(-0.0154371 2.98804 -1.9171e-18)
(-0.0134993 2.92522 6.61914e-19)
(-0.00679031 1.81259 0)
(-0.00487136 1.80775 0)
(-0.00182405 1.64906 -3.21751e-22)
(0.000198971 1.62783 0)
(-0.00508464 1.52568 0)
(0.935918 -6.82784e-05 0)
(0.874873 0.000844245 0)
(0.85835 0.00414598 0)
(0.939308 -0.00322194 0)
(0.881821 -0.00360175 0)
(0.482505 1.09118 2.45985e-20)
(0.535507 1.15485 0)
(0.337563 0.825517 4.41041e-21)
(0.276631 0.692949 0)
(0.956687 1.08297 -2.7528e-19)
(1.07488 0.89891 5.70765e-19)
(0.400708 1.3319 0)
(0.58029 1.3286 0)
(0.493593 1.3018 0)
(0.0993049 0.0667479 -9.57139e-20)
(0.566357 0.284253 0)
(0.555553 0.190872 1.13506e-19)
(1.04477 0.945431 0)
(1.11494 0.791097 0)
(1.14114 0.738645 -4.9927e-19)
(1.1746 0.630279 0)
(1.22749 0.415366 6.12031e-20)
(0.949977 -0.00527091 0)
(0.958555 -0.00928333 0)
(0.89825 -0.00665862 0)
(0.98445 -0.00877268 0)
(0.975503 -0.00791734 0)
(0.939131 -0.00595695 0)
(1.00017 0.00229353 0)
(1.00074 0.0013865 0)
(0.999941 0.000766417 0)
(0.0278377 1.70818 2.94273e-19)
(0.0738754 1.54805 0)
(0.0148698 1.73329 2.32348e-19)
(0.0237849 1.59751 -4.14502e-19)
(0.0529732 1.27888 -4.64688e-19)
(-0.0302825 1.34127 0)
(0.0643002 1.23557 0)
(-0.0031007 1.50313 0)
(0.0128781 1.34844 0)
(-0.00235117 1.67927 -1.18612e-21)
(-0.00378772 1.58494 0)
(0.000894823 1.68307 -5.73159e-20)
(0.0004969 1.58323 -4.33196e-21)
(-0.00322211 1.52406 0)
(-0.00275584 1.53365 0)
(0.0092742 1.36736 0)
(-0.0185148 1.58128 0)
(-0.0118083 1.4401 0)
(0.974533 0.0137783 0)
(0.924345 0.00456218 0)
(0.958157 0.00720096 0)
(0.89722 0.00169127 0)
(0.849459 -0.00600942 0)
(0.92585 0.000305485 0)
(0.919011 0.0081014 0)
(0.847244 -0.000198333 0)
(0.00606026 3.06456 -6.13975e-21)
(0.0161949 3.05816 0)
(0.01472 2.9692 0)
(0.00854418 2.87634 0)
(0.927031 3.99211 0)
(1.24127 3.31779 1.01315e-18)
(0.0718505 3.08614 0)
(-0.0259511 2.91279 0)
(-0.00853828 1.7942 0)
(-0.00932967 1.78578 0)
(-0.00636318 1.78844 0)
(-0.000718017 1.79121 5.21282e-21)
(-0.0065217 1.78464 0)
(-1.84436e-05 1.78422 0)
(-0.00420566 1.55532 2.97562e-21)
(-0.0049517 1.67082 3.42687e-20)
(-0.0041215 1.66037 2.60825e-20)
(-0.00278052 1.54467 0)
(0.689573 0.131548 2.88655e-19)
(0.653681 0.0443587 -2.80402e-19)
(0.236149 1.34309 0)
(0.297584 0.892029 -2.58008e-19)
(0.169283 1.44695 -7.69186e-19)
(0.216755 1.25191 7.6746e-19)
(0.899302 0.00999629 0)
(0.966823 0.0135579 0)
(0.97623 0.0130439 0)
(0.923499 0.0105409 0)
(-0.0165453 1.59871 0)
(-0.0119889 1.60927 0)
(-0.00961065 1.47053 0)
(0.447311 0.343905 3.83904e-19)
(0.365875 0.321871 -4.67091e-19)
(0.383897 0.244649 0)
(1.14295 0.0839137 -2.7968e-21)
(1.12792 0.0388544 0)
(1.05976 0.032817 0)
(0.975827 0.00308977 0)
(0.710498 0.085124 0)
(0.732781 0.0555048 -1.24174e-18)
(0.660781 0.0121978 4.75037e-19)
(0.0100254 2.98265 4.3254e-19)
(-0.0320376 2.8682 4.81696e-20)
(0.00395489 3.05016 -1.32489e-20)
(0.0198607 3.04359 4.76677e-19)
(-0.0150703 2.9965 2.19906e-20)
(-0.0129801 2.94937 -8.90186e-23)
(-0.0173149 3.01201 -4.16402e-19)
(0.0147656 3.02411 3.01052e-19)
(0.0072521 3.03675 -4.7119e-19)
(0.953445 0.00719027 0)
(0.946546 0.0051655 0)
(0.882493 0.00379565 0)
(0.953747 0.0124632 0)
(0.937491 0.0124002 0)
(0.875239 0.00873441 0)
(0.926665 -0.0019057 0)
(0.922787 0.00345556 0)
(0.849561 -0.00501152 0)
(0.69426 1.39146 3.19057e-19)
(0.735563 1.50795 0)
(0.213061 0.411384 3.07441e-20)
(0.174144 0.534377 2.43059e-19)
(0.253657 0.649138 -1.15902e-19)
(0.210754 0.551253 2.19224e-19)
(0.316466 0.626023 5.60081e-19)
(0.113834 0.115979 1.98654e-19)
(0.60893 0.22615 -4.05727e-19)
(0.587405 0.249443 1.04231e-19)
(0.562709 0.160797 2.17493e-19)
(1.21537 0.469813 2.90515e-19)
(1.23222 0.262837 3.04578e-19)
(0.00467589 1.73806 1.90886e-19)
(0.00878972 1.60695 0)
(1.01441 0.0240066 0)
(0.987725 0.0140395 0)
(0.94467 -0.00263925 0)
(0.0109418 3.07503 0)
(0.0202087 2.94414 8.20084e-19)
(0.0166233 2.95656 0)
(0.00602415 2.85065 -8.13585e-19)
(0.00592517 3.0919 1.94781e-19)
(0.0073108 3.08184 0)
(0.770168 1.81818 -2.33921e-19)
(1.24645 2.51172 6.39958e-19)
(0.755244 1.96317 -1.4804e-18)
(0.0214478 2.98606 -3.17037e-19)
(0.0374562 3.00972 0)
(-0.0317237 2.8835 0)
(-0.0043346 1.67122 -7.09343e-21)
(-0.00570724 1.67698 -3.51965e-21)
(-0.00443769 1.57275 -5.14655e-21)
(0.320298 1.23617 7.58238e-19)
(0.274149 0.652826 -5.10299e-19)
(0.0521754 1.64974 4.98717e-19)
(0.0916064 1.54827 -6.14967e-19)
(0.122664 1.42658 7.9287e-20)
(0.00549068 3.11864 -1.02711e-18)
(0.0117242 3.11909 1.11931e-18)
(-0.00866195 2.98098 5.2863e-19)
(-0.00361022 2.978 -4.6827e-19)
(-0.0214909 2.88192 -5.384e-19)
(0.0086108 3.09956 -1.42775e-18)
(0.00205008 3.10492 1.42903e-18)
(0.189872 0.542323 0)
(0.0871734 0.510172 -4.539e-19)
(0.147532 0.185909 1.86375e-19)
(0.350105 0.772798 6.11627e-19)
(0.200277 0.205772 -9.29798e-19)
(1.22539 0.171031 -5.34886e-20)
(1.22914 0.313438 0)
(1.21294 0.119579 1.18904e-19)
(-0.00961734 1.70557 -1.52838e-21)
(-0.00751409 1.71909 0)
(-0.000861337 1.59562 0)
(0.367691 1.11487 -2.46608e-19)
(0.373384 0.981573 -5.06715e-19)
(0.201836 0.389237 8.77708e-19)
(1.00562 -0.0107846 0)
(1.00766 -0.00809202 2.00798e-19)
(-0.0064666 1.80311 0)
(-0.0118653 1.81003 0)
(1.00262 0.00376093 1.91899e-21)
(1.0025 0.0086645 4.12787e-19)
(-0.000690887 1.79482 -6.80158e-21)
(-0.00136695 1.79481 0)
(0.0407269 3.18627 1.20612e-19)
(0.401831 3.50794 0)
(1.10012 0.642662 6.11015e-20)
(1.01268 0.0131673 -2.54712e-21)
(1.01671 -0.0209041 0)
(1.0016 0.000425901 1.52467e-22)
(-0.111319 1.58714 0)
(0.0187144 1.9799 0)
(-0.0162851 1.78119 0)
(-0.0188662 1.83674 8.35246e-20)
(-0.00375943 1.8182 4.28336e-20)
(1.00388 0.0115482 2.36967e-21)
(1.0455 0.013888 0)
(1.07348 0.022393 0)
(-0.0106966 1.78637 0)
(-0.00733376 1.80584 0)
(-0.01573 1.7957 0)
(0.1493 1.23029 -3.86619e-19)
(1.01123 -0.00938087 0)
(1.01016 -0.0129791 0)
(1.0026 0.000775896 2.54301e-19)
(1.00617 -0.0054318 -3.02793e-19)
(1.00088 -0.000850335 0)
(-0.0124773 1.78729 0)
(-0.00853988 1.7968 0)
(-0.00802932 1.79345 0)
(-0.0123904 1.79837 0)
(-0.00879783 1.79508 0)
(-0.0112994 1.79803 0)
(1.02307 0.00899856 0)
(1.02366 0.00556366 -1.08036e-21)
(0.786388 1.24583 5.1463e-19)
(1.00231 0.000480873 -2.52921e-19)
(1.0036 0.00546462 3.0681e-19)
(1.00124 0.00195489 0)
(1.01025 0.0100122 2.49139e-19)
(1.00801 0.00873707 -3.06716e-19)
(1.00652 0.0145921 0)
(-0.00699563 1.80598 0)
(-0.00515819 1.80135 1.35223e-20)
(-0.00589901 1.80091 -9.23121e-21)
(1.18016 0.260168 -5.168e-20)
(1.11656 0.0783331 0)
(0.0566191 3.07851 -5.34545e-19)
(0.070063 2.84983 -4.28848e-20)
(0.149477 3.19949 8.17319e-19)
(0.142423 3.22833 -7.46792e-21)
(0.142429 3.24629 0)
(0.0218105 3.1392 1.16757e-19)
(0.0821767 3.16304 5.22099e-19)
(0.0746571 3.19113 -2.25538e-19)
(0.026368 3.12819 0)
(0.710232 0.33779 0)
(0.616283 0.393057 0)
(1.08132 0.670668 -2.38837e-19)
(1.07264 0.808887 -8.74684e-20)
(1.12994 0.559707 0)
(1.16222 0.507544 0)
(1.01555 0.0131548 -4.63437e-19)
(1.01344 0.0148125 -1.84655e-21)
(1.01578 -0.0214578 0)
(1.01256 -0.0195066 0)
(1.00725 0.00198819 0)
(1.01081 0.00260634 0)
(1.00412 0.00304352 0)
(1.01031 0.0070398 0)
(1.00665 0.00578467 0)
(1.00566 0.00477259 0)
(-0.0936235 1.60042 0)
(-0.0662319 1.64616 0)
(-0.133298 1.55008 0)
(-0.0851928 1.48737 0)
(0.0237601 1.99488 0)
(0.0927307 1.98061 -3.17406e-19)
(0.00855251 1.97373 0)
(-0.000617109 1.93746 1.54734e-19)
(-0.0243229 1.87955 -1.4751e-19)
(-0.017656 1.78056 0)
(-0.0206963 1.78055 0)
(-0.0175792 1.77827 0)
(-0.0119682 1.75695 0)
(-0.0338252 1.82068 -4.34931e-20)
(-0.00633148 1.82254 5.90876e-20)
(-0.0120677 1.83763 7.68267e-20)
(-0.00115454 1.82853 0)
(-0.00863668 1.82026 -9.43912e-20)
(-0.00948163 1.81615 -5.32609e-20)
(-0.0261122 1.81703 3.39688e-20)
(-0.0164827 1.81943 -7.56176e-20)
(-0.0134972 1.8286 -9.15329e-20)
(1.01062 0.0166657 4.53691e-19)
(1.00938 0.0034152 1.90122e-21)
(1.0053 0.0201938 -4.71194e-19)
(0.991598 0.0153289 5.95601e-19)
(1.03879 0.0165012 0)
(1.04012 0.0106574 0)
(1.06038 0.0378924 0)
(1.04591 0.0217834 0)
(1.05932 0.0128494 0)
(1.10286 0.0686418 0)
(1.07878 0.0470401 0)
(1.09274 0.0366383 0)
(-0.00701909 1.79561 -1.60819e-21)
(-0.0106056 1.78576 0)
(-0.00904357 1.78778 0)
(-0.00702882 1.80834 1.49684e-20)
(-0.00700777 1.80855 -6.93233e-22)
(-0.014515 1.78439 1.59413e-20)
(-0.0132272 1.78745 -1.63776e-20)
(-0.0139022 1.79372 0)
(-0.0113958 1.79457 0)
(-0.0121019 1.79531 0)
(-0.0162355 1.79429 0)
(-0.0170899 1.79523 0)
(0.340419 1.22465 8.421e-19)
(0.391511 1.32403 3.23035e-19)
(0.511574 2.32829 -1.78992e-19)
(0.228333 2.13848 4.88236e-19)
(0.117363 2.42876 -1.02931e-19)
(1.0179 -0.0158551 0)
(1.01612 -0.0101797 0)
(1.01492 -0.0195934 0)
(1.00878 -0.00130988 0)
(1.00483 -0.00181293 0)
(1.0069 -0.0045494 0)
(1.01033 -0.00370032 0)
(1.01203 -0.00650242 0)
(1.02378 0.0080133 4.46125e-19)
(1.01603 0.0162604 -5.52766e-19)
(1.02462 0.00254243 -4.46067e-19)
(1.02133 0.00218313 5.45719e-19)
(0.754148 1.26441 0)
(0.655619 1.34435 6.30694e-19)
(0.874156 1.17644 3.64178e-19)
(0.907961 1.14984 -4.84925e-19)
(1.11256 2.60014 -5.19342e-19)
(0.824774 0.100409 2.96382e-19)
(1.11802 0.0913996 0)
(1.15822 0.171912 4.82234e-20)
(1.15062 0.149335 2.05808e-21)
(0.966695 0.129468 0)
(0.153132 2.97023 1.25718e-19)
(0.129476 2.87664 -6.76488e-19)
(0.0412831 2.34806 4.95558e-19)
(0.117528 0.139636 -2.04134e-19)
(0.34661 3.4372 -4.41647e-19)
(0.200667 3.32623 0)
(0.242304 3.37294 5.75161e-19)
(0.262044 3.04308 -7.32898e-19)
(0.3542 3.20389 0)
(0.00833279 3.12031 2.73996e-20)
(0.0194999 3.1294 -3.47101e-19)
(0.0172221 3.12527 5.10904e-19)
(0.0390681 3.13983 0)
(0.0374278 3.15235 0)
(1.19134 2.61344 0)
(0.509159 0.827839 -2.25257e-19)
(1.01168 0.981131 -2.00795e-19)
(0.96362 1.06397 0)
(0.813919 0.953705 5.85038e-20)
(1.03634 0.867318 3.2376e-20)
(0.406046 0.480474 -5.51815e-19)
(0.735874 0.328146 -2.31597e-20)
(0.730102 0.280517 2.26372e-19)
(0.61467 0.433937 1.80043e-20)
(0.556033 0.428022 -7.41494e-19)
(0.708757 0.366336 0)
(0.689094 0.435685 3.75051e-19)
(0.701761 0.433709 0)
(0.659095 0.413006 0)
(0.673922 0.356914 0)
(0.733184 0.602902 1.34715e-19)
(1.16849 0.269285 -5.68797e-20)
(1.16882 0.402385 0)
(1.18736 0.369362 0)
(0.780733 0.213556 3.35992e-19)
(0.778832 0.533542 -1.87973e-19)
(0.688279 0.510877 -3.05587e-19)
(0.883187 0.400874 -2.89715e-19)
(1.01776 0.0173987 2.97469e-19)
(1.01691 0.0152958 -3.13536e-19)
(1.01242 0.0217312 0)
(1.02033 0.00517438 0)
(1.01399 -0.0145636 -2.82257e-19)
(1.00757 -0.00986214 2.79607e-19)
(1.03357 0.00404982 0)
(1.03008 0.00437772 0)
(1.01238 0.00413534 0)
(1.01517 0.00962703 0)
(1.02224 0.00211102 0)
(1.01671 0.00116351 0)
(-0.052437 1.67768 0)
(-0.0376429 1.69571 0)
(-0.221709 1.56233 1.13933e-19)
(0.0796256 1.31917 1.90526e-19)
(-0.086314 1.43017 3.67276e-19)
(0.0037026 1.33884 -1.58591e-19)
(-0.217114 1.53169 0)
(-0.273473 1.94661 4.81417e-20)
(-0.247608 1.93957 0)
(-0.0563774 2.44686 1.46163e-19)
(-0.0525233 2.44561 2.83216e-19)
(-0.308633 1.9539 -4.27814e-20)
(-0.0928704 1.34962 1.90607e-19)
(-0.224644 1.50461 1.51583e-19)
(-0.112277 1.34335 5.58132e-19)
(-0.255901 2.02534 -1.33443e-19)
(-0.215082 2.0584 -3.54841e-19)
(-0.0692959 1.85092 -3.862e-20)
(-0.0230728 1.89189 0)
(-0.0518982 1.87779 1.55558e-19)
(-0.0615808 1.86356 0)
(-0.0081234 1.9271 -1.68561e-19)
(-0.0107202 1.9124 0)
(-0.0257099 1.79732 -3.44761e-20)
(-0.031621 1.80319 0)
(-0.0380017 1.78243 0)
(-0.031428 1.79055 3.865e-20)
(-0.0300436 1.84571 -3.76645e-21)
(-0.0283107 1.87131 1.74953e-19)
(-0.0246612 1.85865 1.18265e-21)
(-0.0179461 1.80529 3.15767e-20)
(-0.0210201 1.80418 -1.88305e-20)
(-0.0241889 1.78199 0)
(-0.0239487 1.78265 0)
(-0.0641207 1.82414 9.04237e-20)
(-0.0543112 1.78234 6.09184e-20)
(-0.0532817 1.80062 -8.6883e-20)
(-0.0876241 1.83761 0)
(-0.0123123 1.79931 -5.14207e-20)
(-0.0109403 1.80861 2.42271e-20)
(-0.0109861 1.80784 -7.87986e-21)
(-0.0159806 1.80594 -3.83918e-20)
(-0.0126651 1.81194 -1.23428e-20)
(-0.0139963 1.81451 6.32736e-20)
(1.02125 0.0027499 -2.88561e-19)
(1.01561 0.00956215 2.97231e-19)
(1.01626 0.00357688 0)
(0.995826 0.0459773 4.21064e-19)
(0.990981 0.032096 -4.99763e-19)
(0.963108 0.0252233 5.78496e-19)
(0.992345 0.083091 -5.65967e-20)
(1.02521 0.0119049 0)
(1.03221 0.0110348 2.59548e-19)
(1.03104 0.00824083 -2.57273e-19)
(1.03243 0.0414537 -1.41148e-20)
(1.03307 0.0265538 1.23715e-19)
(1.02393 0.0503149 0)
(1.01834 0.0434193 -4.63616e-20)
(1.01643 0.0220285 0)
(1.01737 0.0186531 0)
(1.03325 0.00601199 0)
(1.02691 0.00346935 0)
(1.02339 0.0222875 9.52387e-20)
(1.02633 0.0155461 -2.15582e-19)
(1.02442 0.030326 -9.73361e-20)
(1.02394 0.0314131 -1.127e-19)
(1.02171 0.0494507 1.98838e-19)
(1.05876 0.0473731 0)
(1.04764 0.087457 0)
(-0.0127684 1.7991 -2.16401e-20)
(-0.0120102 1.79098 -1.8264e-21)
(-0.0132785 1.78961 0)
(-0.00955655 1.80186 2.29023e-20)
(-0.00848354 1.79797 3.26906e-21)
(-0.00815531 1.80014 -3.60159e-21)
(-0.0101679 1.81535 4.71982e-20)
(-0.0104485 1.81119 -2.82684e-21)
(-0.0117361 1.81062 1.49076e-20)
(-0.00813438 1.81239 -2.36221e-20)
(-0.00939585 1.81242 -2.94886e-21)
(-0.0158228 1.7861 4.87995e-22)
(-0.01599 1.7858 2.37556e-20)
(0.305417 1.09704 -4.67851e-19)
(0.181714 1.44126 -7.35894e-19)
(0.645227 1.33743 -6.13426e-19)
(0.520142 1.32503 -3.03071e-19)
(0.516693 1.3754 0)
(0.573793 2.34451 1.40353e-19)
(0.654264 2.34557 2.33984e-19)
(0.255159 2.21466 1.15698e-19)
(0.166676 2.50198 -2.45397e-19)
(0.221137 2.51642 2.34991e-19)
(0.475754 2.32972 0)
(0.37024 2.21055 -4.16201e-19)
(0.0582183 2.05779 8.06139e-19)
(0.167494 2.14712 -7.75162e-20)
(0.192209 2.01541 -1.08673e-18)
(0.90742 2.36926 8.94478e-20)
(0.861449 2.40043 0)
(1.00976 -0.00185885 1.00067e-20)
(1.01307 -0.00790389 -8.32057e-21)
(1.01504 -0.0108003 -1.46625e-19)
(1.01713 -0.0120897 1.49066e-19)
(1.01519 -0.00410417 0)
(0.67549 1.24864 0)
(0.663964 1.18556 0)
(0.762753 1.0528 0)
(0.646203 1.1458 0)
(1.14295 2.61702 6.59047e-20)
(1.02767 2.32495 0)
(0.818431 2.16709 7.19014e-22)
(0.929265 2.50777 0)
(0.995771 2.5545 2.87822e-20)
(1.00259 2.49102 0)
(0.831776 0.146287 0)
(0.798617 0.166387 8.51943e-20)
(0.895093 0.120764 4.38524e-19)
(0.857018 0.103604 -1.76128e-19)
(0.857594 0.0680262 -5.25441e-19)
(1.0176 0.217046 -2.67964e-19)
(0.949228 0.252563 -1.63969e-20)
(0.899737 0.24661 3.84098e-19)
(0.96533 0.198409 2.98069e-19)
(0.920029 0.163622 -5.51868e-19)
(0.888719 0.173102 7.07296e-20)
(0.918242 0.228784 -1.38505e-19)
(0.896372 0.192615 0)
(0.970278 0.167278 -2.65574e-19)
(1.00003 0.170162 0)
(0.995717 0.196759 0)
(1.04797 0.094523 8.84013e-20)
(1.01614 0.155618 -1.19529e-20)
(1.00995 0.217882 -1.38018e-19)
(1.0453 0.187518 0)
(1.0101 0.0246694 2.28465e-19)
(1.01341 0.0425866 2.71206e-19)
(1.01461 0.0292008 -2.26457e-19)
(1.00797 0.0469701 -1.82396e-19)
(0.998925 0.0494669 -2.9795e-19)
(0.971995 0.130482 0)
(0.989059 0.0827065 0)
(0.965208 0.0471657 -2.09286e-19)
(0.927218 0.0545789 8.63299e-20)
(0.996072 0.0777062 2.58339e-19)
(1.01193 0.092901 -2.66801e-19)
(1.02259 0.128708 2.42532e-19)
(1.00055 0.119808 0)
(1.02323 0.0819417 0)
(1.01202 0.0690371 -1.11544e-19)
(1.01012 0.0715322 -2.0809e-19)
(0.507133 1.12439 -6.71709e-20)
(0.557574 1.56727 1.44503e-19)
(1.11083 2.78875 1.16039e-19)
(1.20271 3.113 -7.30968e-20)
(1.21314 2.73344 5.44661e-19)
(1.25138 2.71997 -3.30081e-19)
(1.17125 2.33158 -5.87021e-21)
(1.18391 3.01444 2.04816e-19)
(1.19738 2.97625 -2.30604e-19)
(1.19936 3.26469 -2.69756e-19)
(1.36106 2.99068 3.74082e-19)
(1.35731 2.90146 0)
(0.508293 0.834259 -1.14959e-20)
(0.162399 1.29432 3.68256e-19)
(0.510445 0.552888 3.63193e-19)
(0.334446 0.323179 3.97572e-19)
(0.554343 0.454755 4.14176e-19)
(0.540054 0.502032 -6.5517e-19)
(0.540622 0.530646 5.35572e-19)
(0.514658 0.478431 -2.16341e-19)
(0.484048 0.436702 4.97166e-19)
(0.779533 0.259581 5.77213e-19)
(0.750086 0.293233 0)
(0.748544 0.257058 1.20415e-20)
(0.679758 0.519925 1.91342e-19)
(0.658949 0.487234 -7.0917e-19)
(0.599961 0.50135 2.01812e-20)
(0.619526 0.478515 0)
(0.627556 0.722402 1.45949e-19)
(0.772364 0.776624 5.87398e-20)
(0.704822 0.837125 -7.67403e-20)
(0.810954 0.804461 -2.06051e-20)
(0.87118 0.833269 1.42152e-20)
(0.877485 0.845562 -1.4544e-20)
(0.782344 0.620466 -2.33168e-19)
(0.862133 0.690584 1.91577e-20)
(0.928262 0.695668 0)
(0.917749 0.664677 -2.10929e-20)
(0.969284 0.290134 6.65658e-20)
(1.06625 0.270538 1.89756e-20)
(1.00382 0.249894 1.09347e-19)
(0.94229 0.32596 -1.50623e-19)
(0.982229 0.399825 0)
(1.04934 0.381637 0)
(0.873427 0.33001 6.06238e-21)
(0.844296 0.279267 0)
(0.842753 0.245117 2.03899e-19)
(0.889555 0.25212 -3.96992e-21)
(0.874124 0.405356 7.94462e-19)
(0.822842 0.469663 2.02359e-19)
(0.826584 0.434025 -2.52875e-19)
(0.767297 0.424044 -2.71621e-19)
(0.752713 0.427749 1.85857e-19)
(0.743856 0.421646 -1.81852e-19)
(1.02476 -0.00187535 2.41866e-19)
(1.02991 -0.0057821 0)
(1.02838 -0.0103618 1.60862e-19)
(1.02333 -0.0115424 -3.00435e-21)
(1.03668 0.00183515 1.76098e-19)
(1.03069 0.00821016 -3.71894e-19)
(1.02865 0.00979021 0)
(1.02199 0.0120752 -7.61377e-20)
(1.02578 0.00666783 1.93249e-19)
(1.01912 0.012716 -9.88632e-20)
(1.02115 0.0142945 7.20169e-20)
(-0.0245778 1.75353 0)
(-0.0448309 1.77555 0)
(-0.0352889 1.72131 0)
(-0.0224921 1.72828 0)
(-0.145668 1.72094 -4.92276e-20)
(-0.144672 1.64302 7.97505e-21)
(-0.212392 1.90652 -1.5083e-20)
(-0.27277 1.71368 -8.97453e-20)
(-0.0776657 1.78206 -4.18693e-20)
(-0.0891219 1.77784 2.94168e-20)
(-0.111503 1.72053 2.66962e-21)
(-0.0930969 1.74154 -1.77947e-20)
(-0.0641377 1.75568 1.23216e-21)
(-0.0597387 1.76603 3.84354e-21)
(-0.0654578 1.91696 -1.64801e-19)
(-0.0627849 1.96374 0)
(-0.148965 1.98244 8.68032e-20)
(-0.191032 1.92542 4.4406e-20)
(-0.200545 2.21604 -2.04194e-20)
(-0.0472074 2.22807 0)
(-0.0654053 2.27204 -3.05398e-19)
(-0.0514126 2.36693 2.23998e-19)
(-0.170652 2.1187 -1.60378e-19)
(-0.156131 2.05296 5.40258e-20)
(-0.0869064 2.10781 0)
(-0.0526815 1.81834 -1.15884e-19)
(-0.0430202 1.82449 -1.60317e-19)
(-0.0441673 1.8226 0)
(-0.0507372 1.84285 -5.18148e-21)
(-0.0614636 1.8403 6.13414e-20)
(-0.0198131 1.7943 5.41314e-21)
(-0.0217951 1.79124 -8.86449e-20)
(-0.0251788 1.79297 1.90718e-20)
(-0.0218637 1.79583 3.58211e-20)
(-0.0197728 1.79817 0)
(-0.0251689 1.79147 0)
(-0.0221378 1.79051 2.79897e-20)
(-0.0237964 1.78883 -8.16097e-21)
(-0.0261023 1.78984 0)
(-0.025231 1.78508 2.15546e-20)
(-0.0215804 1.78925 -4.20167e-20)
(1.02754 0.0177791 0)
(1.0292 0.0164124 -2.3093e-20)
(1.02841 0.0157877 -1.7351e-19)
(1.02755 0.0179222 0)
(1.02756 0.0202067 0)
(1.03056 0.0101452 -4.72264e-21)
(1.03092 0.0102768 2.85995e-19)
(1.02685 0.00859826 3.52341e-19)
(1.02615 0.00571878 0)
(1.021 0.00515948 0)
(1.02401 0.014832 1.75519e-19)
(1.02001 0.0127002 0)
(1.02111 0.0107843 0)
(-0.0137999 1.80033 0)
(-0.0160388 1.78598 1.90762e-21)
(-0.0160911 1.79195 1.22574e-20)
(-0.0222487 1.78985 0)
(-0.0179254 1.7878 1.68296e-20)
(-0.0158538 1.78756 -7.88095e-21)
(-0.0179505 1.78727 0)
(0.67033 1.94004 0)
(0.275362 1.5144 1.20068e-18)
(0.272863 2.09142 0)
(0.55251 1.11104 -6.47764e-19)
(0.523817 1.14752 0)
(0.504989 1.13127 5.69054e-19)
(1.03809 2.67459 -2.78831e-21)
(0.932395 2.38415 -1.18825e-19)
(0.823663 2.07784 4.26426e-19)
(0.87444 2.38828 9.19852e-20)
(0.935302 2.53698 0)
(0.970339 2.4965 0)
(0.886074 2.36776 0)
(0.880123 2.35262 -3.47705e-19)
(0.684748 2.60761 5.19239e-20)
(0.931666 2.5158 6.87335e-21)
(0.942367 2.49404 -5.18698e-21)
(0.674073 2.39724 0)
(0.805685 2.41085 0)
(0.765404 2.38611 -2.21877e-19)
(0.876696 2.58875 0)
(0.579738 1.1002 0)
(0.466464 0.899465 2.60025e-20)
(0.523159 0.935726 2.757e-22)
(0.467742 1.04485 0)
(0.491799 0.993444 -4.03847e-20)
(0.727571 0.861541 1.39514e-20)
(0.772067 0.981816 0)
(0.747427 0.957262 -6.58136e-20)
(0.627741 1.00516 0)
(0.625443 0.919645 0)
(1.12854 2.77744 3.3726e-20)
(1.10006 2.84978 7.97868e-20)
(0.868015 2.38611 -2.02501e-19)
(0.829615 2.36556 1.17185e-20)
(1.09315 2.73519 0)
(1.06076 2.6933 -1.38139e-20)
(1.04694 2.45403 -8.76366e-20)
(0.932963 2.16161 -2.55469e-20)
(0.588612 1.44764 0)
(0.521468 1.12925 5.91555e-20)
(0.600624 1.22057 0)
(0.8359 0.211007 0)
(0.808355 0.182787 0)
(0.774508 0.190891 0)
(0.83469 0.210894 -3.22427e-19)
(0.792288 0.213837 1.96312e-19)
(0.927993 0.0521245 -1.71469e-19)
(0.936396 0.0998069 0)
(0.916613 0.100251 8.1835e-20)
(0.884369 0.0725185 3.34633e-19)
(0.886188 0.0589404 -2.06416e-19)
(1.15639 3.38738 -9.83884e-19)
(1.19973 3.30893 0)
(1.16057 3.40983 -1.92635e-18)
(0.653379 3.56876 1.65697e-18)
(0.885867 3.13673 4.06217e-19)
(0.500903 0.843027 1.96283e-19)
(0.42335 0.828557 0)
(0.352425 0.567853 -8.08636e-20)
(0.412912 0.679884 -3.65115e-19)
(0.508049 0.548401 -1.12479e-19)
(0.49529 0.564467 1.25855e-19)
(0.614178 0.539741 2.70118e-19)
(0.632704 0.549456 0)
(0.583905 0.624162 0)
(0.546647 0.564235 0)
(0.91416 0.578667 -4.56347e-20)
(0.830186 0.518158 -1.95541e-19)
(0.861348 0.559212 9.71794e-20)
(0.895806 0.495883 -1.42832e-19)
(1.00755 0.465615 0)
(1.00875 0.548177 -9.20631e-21)
(0.809313 0.368385 -4.05388e-19)
(0.818113 0.35137 6.12567e-19)
(0.798745 0.37766 3.16979e-19)
(0.80217 0.336745 -3.59363e-19)
(0.834763 0.291854 -2.59422e-19)
(0.812759 0.293221 3.22491e-19)
(1.03769 0.00316466 -1.84495e-19)
(1.0381 0.00400612 3.74811e-19)
(1.02736 0.0039555 2.30371e-19)
(1.03188 0.00863241 -2.7412e-19)
(1.0285 0.0168645 0)
(1.03215 0.0121263 -4.49547e-19)
(-0.0854511 1.83638 2.78932e-20)
(-0.0989028 1.84053 0)
(-0.126425 1.87189 1.26366e-19)
(-0.150618 1.91401 -1.05859e-19)
(-0.189588 1.8876 2.73137e-20)
(-0.155806 1.87161 0)
(-0.0170147 1.80273 0)
(-0.0231444 1.79434 -9.08076e-21)
(-0.0218151 1.79001 8.17985e-21)
(-0.019899 1.78935 2.01513e-21)
(-0.0171355 1.79942 -1.6425e-20)
(-0.0161891 1.802 -2.65018e-20)
(0.711615 1.42651 5.21983e-19)
(0.758085 1.53636 6.13477e-19)
(0.649962 1.21248 5.66376e-19)
(0.817935 1.42129 -4.14972e-20)
(0.680508 1.24083 0)
(0.629453 1.20296 5.66713e-19)
(0.629977 1.27043 -5.41376e-19)
(0.622251 1.13942 -5.55057e-19)
(0.726371 1.19791 0)
(0.663407 1.25614 0)
(0.696054 2.59388 -7.72971e-20)
(0.705885 2.55499 3.08551e-19)
(0.788085 2.60361 -2.1054e-19)
(0.590222 2.61161 -1.25491e-19)
(0.415565 2.73764 1.65978e-20)
(0.350583 2.70129 -1.72728e-19)
(0.955962 2.28916 -2.43925e-19)
(0.98223 2.33238 0)
(0.851113 2.06209 -2.87589e-19)
(1.03762 2.6729 0)
(1.0149 2.6499 0)
(0.626448 2.31522 2.89687e-19)
(1.02709 3.18813 4.94299e-19)
(0.905999 3.05651 -4.69041e-19)
(0.311418 0.968873 0)
(0.358176 0.842411 -1.40109e-19)
(0.497947 0.76577 -4.6603e-19)
(0.433651 2.06746 0)
(0.480646 2.80111 -2.82455e-19)
(0.448301 2.56326 0)
(0.637684 0.677968 -3.03237e-19)
(0.704391 0.680064 3.96335e-19)
(0.737264 0.621642 2.77665e-19)
(0.602756 0.642424 4.59758e-20)
(0.663373 0.596404 -1.90869e-19)
(0.987549 2.80078 -3.75466e-19)
(1.00829 2.85835 3.07353e-19)
(0.658401 2.23978 -3.5208e-20)
(0.58102 1.75091 -1.28821e-20)
(0.687472 1.98012 1.63781e-19)
(0.968082 2.50565 -4.6592e-20)
(0.970869 2.52436 -1.878e-19)
(0.689865 1.92926 -8.02475e-21)
(0.432777 1.39707 -1.81515e-19)
)
;

boundaryField
{
    wall-4
    {
        type            noSlip;
    }
    velocity-inlet-5
    {
        type            fixedValue;
        value           uniform (1 0 0);
    }
    velocity-inlet-6
    {
        type            fixedValue;
        value           uniform (0 3 0);
    }
    pressure-outlet-7
    {
        type            zeroGradient;
    }
    wall-8
    {
        type            noSlip;
    }
    frontAndBackPlanes
    {
        type            empty;
    }
}


// ************************************************************************* //
