/*--------------------------------*- C++ -*----------------------------------*\
| =========                 |                                                 |
| \\      /  F ield         | OpenFOAM: The Open Source CFD Toolbox           |
|  \\    /   O peration     | Version:  2412                                  |
|   \\  /    A nd           | Website:  www.openfoam.com                      |
|    \\/     M anipulation  |                                                 |
\*---------------------------------------------------------------------------*/
FoamFile
{
    version     2.0;
    format      ascii;
    arch        "LSB;label=32;scalar=64";
    class       surfaceScalarField;
    location    "4";
    object      phi;
}
// * * * * * * * * * * * * * * * * * * * * * * * * * * * * * * * * * * * * * //

dimensions      [0 3 -1 0 0 0 0];

oriented        oriented;

internalField   nonuniform List<scalar> 
46
(
-6.35725
-5.23238
5.23238
-3.31658
1.3489
-8.08545
-5.00835
-5.00835
-3.29675
-3.25713
0.0953941
3.31795
-6.63453
-3.29664
5.10797
0.124407
-5.10797
0.0996226
3.28537
-6.58202
3.27058
-6.56733
3.30012
-11.3856
3.31242
-6.56955
-3.32442
-3.31011
-7.54871
-6.99974
-4.38583
-6.90012
-3.24216
-3.32517
9.04844
3.29347
-6.53563
3.28854
-6.59865
-1.55399
5.52831
-5.65272
2.98388
3.58567
-2.57356
9.17221
)
;

boundaryField
{
    wall-4
    {
        type            calculated;
        value           nonuniform List<scalar> 0();
    }
    velocity-inlet-5
    {
        type            calculated;
        value           nonuniform List<scalar> 0();
    }
    velocity-inlet-6
    {
        type            calculated;
        value           nonuniform List<scalar> 0();
    }
    pressure-outlet-7
    {
        type            calculated;
        value           nonuniform List<scalar> 7(6.35725 6.5872 6.73655 6.55389 6.61459 6.55595 6.61254);
    }
    wall-8
    {
        type            calculated;
        value           uniform 0;
    }
    frontAndBackPlanes
    {
        type            empty;
    }
    procBoundary16to15
    {
        type            processor;
        value           nonuniform List<scalar> 4(-3.27062 4.2243 -5.99473 -10.7262);
    }
    procBoundary16to17
    {
        type            processor;
        value           nonuniform List<scalar> 7(-5.32777 -8.95304 3.52013 -1.2474 -7.36971 -6.91084 -3.96208);
    }
}


// ************************************************************************* //
