/*--------------------------------*- C++ -*----------------------------------*\
| =========                 |                                                 |
| \\      /  F ield         | OpenFOAM: The Open Source CFD Toolbox           |
|  \\    /   O peration     | Version:  2412                                  |
|   \\  /    A nd           | Website:  www.openfoam.com                      |
|    \\/     M anipulation  |                                                 |
\*---------------------------------------------------------------------------*/
FoamFile
{
    version     2.0;
    format      ascii;
    arch        "LSB;label=32;scalar=64";
    class       volVectorField;
    location    "4";
    object      U;
}
// * * * * * * * * * * * * * * * * * * * * * * * * * * * * * * * * * * * * * //

dimensions      [0 1 -1 0 0 0 0];

internalField   nonuniform List<vector> 
38
(
(-0.0152225 1.69744 -3.94535e-21)
(0.00857634 1.66014 -2.42529e-20)
(-0.00282597 1.75747 0)
(0.00720277 1.78855 0)
(-0.0101265 1.71331 3.12811e-21)
(-0.00253954 1.65525 0)
(0.00462966 1.74773 0)
(0.00310271 1.72063 2.39285e-20)
(2.90228e-05 1.76986 0)
(0.00229526 1.76312 0)
(-0.00814311 1.71801 -2.8677e-22)
(0.000920593 1.70563 0)
(-0.010904 1.65326 0)
(-0.00284808 1.75124 0)
(0.00497451 1.74971 0)
(0.00276416 1.74865 0)
(0.0112109 1.7811 5.21771e-21)
(0.00785976 1.74695 0)
(0.00422999 1.76377 0)
(-0.00107999 1.76983 0)
(-0.00448262 1.77646 0)
(0.00883361 1.77829 -6.74553e-21)
(0.00406846 1.77885 0)
(-0.00122529 1.75007 0)
(-0.0163534 1.78584 0)
(-0.00857942 1.74934 0)
(0.00550305 1.76001 0)
(-0.00310923 1.75515 0)
(-0.000794241 1.77587 0)
(-0.0175672 1.78606 0)
(-0.00636176 1.77938 1.28976e-20)
(-0.0102298 1.78281 -7.67661e-21)
(0.00164802 1.76963 -2.522e-21)
(-0.0118598 1.75368 0)
(0.00629444 1.75327 0)
(-0.00329496 1.73883 2.29604e-20)
(0.00803782 1.75819 0)
(0.00514625 1.7581 0)
)
;

boundaryField
{
    wall-4
    {
        type            noSlip;
    }
    velocity-inlet-5
    {
        type            fixedValue;
        value           nonuniform List<vector> 0();
    }
    velocity-inlet-6
    {
        type            fixedValue;
        value           nonuniform List<vector> 0();
    }
    pressure-outlet-7
    {
        type            zeroGradient;
    }
    wall-8
    {
        type            noSlip;
    }
    frontAndBackPlanes
    {
        type            empty;
    }
    procBoundary16to15
    {
        type            processor;
        value           nonuniform List<vector> 4((-0.00415094 1.73428 0) (0.00163218 1.74376 0) (-0.00567276 1.78078 0) (0.00621927 1.7647 0));
    }
    procBoundary16to17
    {
        type            processor;
        value           nonuniform List<vector> 7((0.018334 1.66951 -3.60059e-20) (-0.005334 1.78417 1.83269e-20) (-0.0163154 1.77903 3.40756e-20) (-0.0114923 1.78246 4.05753e-21) (-0.00235913 1.77597 2.22041e-21) (-0.0226015 1.76054 -2.28291e-21) (-0.00380803 1.71837 2.24592e-20));
    }
}


// ************************************************************************* //
