/*--------------------------------*- C++ -*----------------------------------*\
| =========                 |                                                 |
| \\      /  F ield         | OpenFOAM: The Open Source CFD Toolbox           |
|  \\    /   O peration     | Version:  2412                                  |
|   \\  /    A nd           | Website:  www.openfoam.com                      |
|    \\/     M anipulation  |                                                 |
\*---------------------------------------------------------------------------*/
FoamFile
{
    version     2.0;
    format      ascii;
    arch        "LSB;label=32;scalar=64";
    class       volScalarField;
    location    "6";
    object      p;
}
// * * * * * * * * * * * * * * * * * * * * * * * * * * * * * * * * * * * * * //

dimensions      [0 2 -2 0 0 0 0];

internalField   nonuniform List<scalar> 
918
(
0.237566
1.07739
0.00491695
0.236374
0.00112545
1.04447
-0.668988
0.434805
0.219249
-0.108752
0.0241616
0.209901
0.904779
0.669737
-1.40334
0.0258047
0.370372
-0.719253
0.202687
0.0148308
0.613598
0.228617
0.228325
0.214501
0.266558
0.662154
0.786563
0.000948419
0.000660907
0.00196682
-0.000999344
0.000882431
0.00626405
0.928049
0.979237
1.00196
0.193302
-0.353965
-0.476082
-0.60423
-0.521754
-0.761522
0.415342
0.416701
-0.438648
0.440654
0.466679
0.206642
0.217054
0.21819
0.222656
0.220605
0.221858
0.283051
-0.131672
-0.200343
-0.0558076
-0.0388201
0.0858308
0.0240474
0.0334176
0.0259653
0.0310556
0.149649
0.205423
0.202115
0.213032
0.217057
1.01695
0.988798
1.01498
0.928857
0.945389
0.882296
0.854769
0.691059
0.71288
0.65524
0.645562
-1.8819
-2.90106
-0.782066
-0.496974
0.0027231
0.0319165
0.0272581
0.35632
0.364028
0.366082
0.384606
0.697517
-0.645368
-0.865927
0.213249
0.20811
0.22429
0.225379
0.217
0.219556
0.0198054
0.0217895
0.00331233
0.0106557
0.00973282
0.590914
0.568464
0.211237
0.208424
0.228871
0.239109
0.233306
-0.00328453
0.276414
0.305236
0.468699
0.645072
0.638249
0.645414
0.759711
0.724253
0.82308
0.844948
0.00653847
0.000461102
0.0170642
0.00776815
0.0165717
0.183924
0.180477
0.200895
0.196568
0.192514
-0.329991
-0.349522
-0.341878
-0.258401
-0.433816
-0.545158
-0.669776
-0.62266
-0.849176
0.730125
0.393377
0.403927
-0.391276
-0.344726
-0.485979
-0.309004
-0.394778
0.197722
0.203281
0.200929
0.210951
0.206052
0.213542
0.222077
0.218736
0.220087
0.307218
0.362638
0.249262
0.228771
-0.404439
-0.215231
-0.403231
-0.0230566
-0.0101716
0.0988047
0.116494
0.0818475
0.0773504
0.00978083
0.0281677
0.0172714
0.0322437
0.0294774
0.141783
0.133851
0.158346
0.169753
0.195103
0.200292
0.197151
0.199389
0.805137
0.828184
0.835549
0.809225
-3.95517
-6.76036
-0.130761
0.0232499
0.00123208
0.000901902
0.0019144
-0.000277009
0.00547225
0.00209182
0.0507446
0.042271
0.0347493
0.0410139
0.338497
0.347259
0.675205
0.74074
0.621879
0.612493
0.201098
0.204647
0.210109
0.206703
0.0308402
0.0235189
0.0267984
0.47349
0.528307
0.509326
-0.0428768
-0.131836
0.0448093
0.0674847
0.328846
0.313209
0.326764
0.531324
0.56978
0.852932
0.871833
0.868458
0.877869
0.922623
0.939223
0.905209
0.171433
0.176614
0.171882
0.204339
0.198793
0.203045
0.194558
0.198777
0.199371
-0.438822
-0.716545
0.336835
0.148329
-0.174257
0.0228038
0.729294
0.790547
0.375147
0.38718
0.390398
-0.242955
-0.330652
0.198775
0.17358
0.0901935
0.121822
0.103901
0.775835
0.73793
0.787589
0.761252
0.724097
0.746626
-0.615276
-2.11228
-1.18319
0.409886
0.209996
0.300792
0.0641828
0.0551191
0.0541896
0.727218
0.788352
0.396125
0.518475
0.504962
0.607586
0.640231
0.698864
0.618646
0.656317
0.696472
0.675567
0.623713
0.434323
0.585495
0.773411
0.813809
-0.151258
-0.194566
-0.264313
0.126939
0.154928
0.136448
0.765813
0.776122
0.80031
0.208408
0.214312
0.0115311
0.0175377
0.222008
0.222211
0.00465365
0.00680626
0.313661
-1.1895
-0.139136
0.208645
0.201482
0.213493
-0.0673879
0.268105
0.0316327
0.0945118
0.064555
0.204686
0.158287
0.128138
0.00102654
0.0199413
0.0195821
-0.306907
0.2096
0.204844
0.213738
0.215875
0.21876
0.00866263
0.0116436
0.00795648
0.0182623
0.0146623
0.0144694
0.186022
0.195284
-0.234882
0.213114
0.216926
0.217761
0.208747
0.21738
0.213292
0.017578
0.0132106
0.0149915
-0.0454336
0.0666622
0.569394
0.651233
0.565777
0.297288
0.0143321
0.449823
0.520396
0.429007
0.57389
0.369072
0.417632
-0.0756207
-0.205451
-0.0924795
-0.141543
0.206034
0.203165
0.197546
0.198264
0.214672
0.21022
0.211334
0.212346
0.212281
0.210849
-0.021988
-0.0325091
-0.0833092
-0.155317
0.292134
0.353606
0.220251
0.234254
0.146312
0.0417103
0.0349342
0.0316074
0.0246834
0.065077
0.0691117
0.0791078
0.0805627
0.0542729
0.0549524
0.0626634
0.0638152
0.0684496
0.201733
0.196853
0.204724
0.212245
0.163439
0.168176
0.140282
0.157916
0.14205
0.097863
0.122976
0.102299
0.00653852
0.00536942
0.00677598
0.0192027
0.0338445
0.0223458
0.0137982
0.0187101
0.0138483
0.0113532
0.0241886
0.0277926
-0.25251
-0.374118
0.655578
0.550145
0.323928
0.206494
0.207542
0.202256
0.204679
0.211627
0.219807
0.217631
0.209351
0.19748
0.197996
0.195768
0.195661
-0.113117
-0.298464
-0.175663
-0.267516
-0.433279
0.310322
0.0714447
0.0229928
0.00874124
0.202715
0.902418
0.709392
0.615271
0.59726
-0.658774
-0.155157
-0.541264
0.176106
-0.0988847
0.541545
0.59355
0.619092
0.561217
0.516083
-0.432054
0.0446261
-0.246097
-0.196846
-0.0951683
-0.170093
0.534864
0.353947
0.365039
0.411022
0.452265
0.363211
0.33869
0.337232
0.389155
0.391065
0.148174
-0.0235413
-0.0641937
-0.100777
0.347213
0.203709
0.258054
0.191351
0.200298
0.203127
0.204494
0.18989
0.194887
0.195023
0.195312
0.198128
0.204244
0.203546
0.204308
0.206422
-0.0152137
-0.0129974
-0.0411706
-0.174713
-0.172255
-0.240646
-0.107223
0.147476
0.110364
0.295551
0.384336
0.071323
-0.081452
-0.0588289
0.030717
0.15204
0.156993
0.113514
0.161428
0.168138
0.142822
0.205257
0.196224
0.0464811
0.0576658
0.0414648
0.0357087
0.102887
0.118753
0.115655
0.0501587
0.0525157
0.0376789
0.0367096
0.080432
0.054653
0.0650783
0.0708509
0.0225
0.0233202
0.0343225
0.041775
0.0388914
0.0431442
0.19651
0.195386
0.199552
0.209501
0.215433
0.231873
0.206888
0.181327
0.172409
0.177215
0.158916
0.173025
0.163231
0.175857
0.183526
0.194413
0.193692
0.194704
0.18192
0.182394
0.179535
0.182639
0.157952
0.137578
0.130235
0.0176864
0.0168695
0.0210078
0.0161876
0.0129458
0.013975
0.0489254
0.0391049
0.0414947
0.0402994
0.0452221
0.0212492
0.0225431
-0.0951148
0.0331919
-0.239857
-0.277604
-0.362345
0.644801
0.709897
0.55224
0.472274
0.494796
0.5858
0.616318
0.388
0.470713
0.465605
0.649245
0.72029
0.197503
0.20444
0.20374
0.198246
0.198547
-0.0150137
-0.0171687
-0.080852
-0.111554
-0.259325
-0.333241
0.41556
0.520096
0.501018
0.292395
0.302373
0.319716
0.259431
0.290444
0.295332
0.126312
0.199833
0.245963
0.206226
0.241953
0.261009
0.233642
0.256129
0.21345
0.180266
0.17801
0.124571
0.135218
0.116701
0.105428
0.195796
0.178973
0.182596
0.17829
0.200037
0.227619
0.217704
0.232388
0.249047
0.184656
0.152738
0.157056
0.176321
0.149706
0.16035
0.171644
-0.341052
-0.346607
-0.276182
-0.733117
-0.594252
-0.449714
-0.555288
-0.643953
-0.397341
-1.09043
-0.825231
-1.38971
-0.134508
0.887108
0.518988
0.539342
0.455675
0.415797
0.419715
0.503559
0.495952
0.333848
0.34789
0.354646
0.28348
0.322302
0.379604
0.367218
0.057106
0.0344429
-0.039669
0.0153089
-0.0858683
-0.0671542
0.110281
0.0556901
-0.00451042
0.00284429
0.166526
0.0556288
0.113286
0.159831
0.102365
0.0680048
0.229967
0.300532
0.283347
0.256283
0.17961
0.187465
0.220187
0.259315
0.279524
0.314348
0.194169
0.200321
0.201829
0.197767
0.196894
0.198493
0.199422
0.200028
0.201499
0.202178
0.202974
0.0260679
0.0354804
0.00869958
0.0176939
0.0338957
0.0180981
0.0575486
0.0331387
0.0480258
0.04979
0.0267272
0.00471207
0.0174528
0.0338296
0.156369
0.184573
0.186198
0.13776
0.239881
0.348837
0.387421
0.341088
0.215475
0.244419
0.28789
0.0878609
0.0959963
0.0808713
0.106626
0.0972854
0.0403448
0.0377311
0.0374668
0.0467128
0.0447583
0.0333344
0.0290248
0.0274475
0.0308504
0.0352752
0.0331639
0.182088
0.175748
0.173781
0.166838
0.168048
0.184664
0.188171
0.18847
0.191313
0.193352
0.188491
0.193058
0.193636
0.0371134
0.0210845
0.0266641
0.0279556
0.0225785
0.0225822
0.0250462
0.260701
0.141428
0.236221
0.099241
-0.151819
-0.0531423
0.403754
0.574925
0.515181
0.671365
0.610284
0.546779
0.577669
0.683236
0.422282
0.577588
0.529745
0.681392
0.673408
0.724622
0.582671
-0.192891
-0.580437
-0.231299
-0.466507
-0.656879
-0.104942
-0.0979058
-0.0927483
-0.160932
-0.215821
-0.00379659
0.0245559
0.0101537
0.259847
0.0656174
0.206736
-0.160698
-0.103699
0.24726
-0.027203
0.110229
0.299088
0.319236
0.335285
0.304416
0.333019
0.256713
0.252397
0.262052
0.277959
0.266608
-1.17671
-1.11369
-1.75966
-1.12884
-0.81645
-0.186823
-0.479048
0.375053
0.221808
0.441365
0.38386
0.330886
0.271071
0.245448
0.316221
0.0505351
0.150796
0.124748
0.134105
0.057368
-0.0137955
0.271453
0.264019
0.302304
0.322841
0.296776
0.326099
0.194459
0.19096
0.195743
0.190616
0.181497
0.182011
0.110543
0.0823632
0.121221
0.101961
0.0557385
0.0535348
0.0395567
0.0381471
0.0314236
0.0307036
0.0399948
0.0399472
0.285062
0.28478
0.126827
0.228889
-0.0360818
-0.101457
-0.148811
0.0475268
0.0839724
0.0797362
0.474975
0.585345
0.5303
0.553344
0.450659
0.47565
0.382108
0.104615
0.219575
0.264075
0.375862
-0.759568
-0.952188
-0.829452
0.579022
0.414259
-0.0434758
-0.361392
-0.388622
0.0428453
0.138474
0.10065
0.152768
0.207802
0.212136
-0.789428
-0.622162
-0.900308
-0.765227
-0.575386
-0.514562
-0.454532
-0.737302
-0.732006
)
;

boundaryField
{
    wall-4
    {
        type            zeroGradient;
    }
    velocity-inlet-5
    {
        type            zeroGradient;
    }
    velocity-inlet-6
    {
        type            zeroGradient;
    }
    pressure-outlet-7
    {
        type            fixedValue;
        value           uniform 0;
    }
    wall-8
    {
        type            zeroGradient;
    }
    frontAndBackPlanes
    {
        type            empty;
    }
}


// ************************************************************************* //
