/*--------------------------------*- C++ -*----------------------------------*\
| =========                 |                                                 |
| \\      /  F ield         | OpenFOAM: The Open Source CFD Toolbox           |
|  \\    /   O peration     | Version:  2412                                  |
|   \\  /    A nd           | Website:  www.openfoam.com                      |
|    \\/     M anipulation  |                                                 |
\*---------------------------------------------------------------------------*/
FoamFile
{
    version     2.0;
    format      ascii;
    arch        "LSB;label=32;scalar=64";
    class       surfaceScalarField;
    location    "6";
    object      phi;
}
// * * * * * * * * * * * * * * * * * * * * * * * * * * * * * * * * * * * * * //

dimensions      [0 3 -1 0 0 0 0];

oriented        oriented;

internalField   nonuniform List<scalar> 
1300
(
3.75095
5.62643
-6.4198
3.75095
-6.28918
5.62643
-5.17724
5.17724
-1.61202
1.61202
1.88111
1.86984
-5.35598
5.35598
-5.41024
5.41024
-2.9742
2.9742
-5.24693
5.24693
-5.07089
5.07089
4.77144
-4.77144
-5.1708
5.1708
-2.11188
2.11188
-5.9734
5.9734
3.16738
-3.16738
-5.43098
5.43098
-0.563474
0.563474
-0.546663
4.29762
3.20429
3.20429
-2.79445
2.79445
-4.85498
4.85498
6.21855
-6.21855
9.71091
-9.71091
-3.29111
-3.3251
1.34473
-8.06955
-4.94444
-4.94444
-8.44032
8.44032
-2.81389
2.81254
3.11391
-3.11391
-0.981638
0.981638
-4.84412
-0.333114
-4.84412
5.60649
-0.42925
5.60649
-1.7862
0.174182
-1.7862
4.15313
-4.15313
1.46311
0.148905
1.46311
3.06872
-3.06872
-1.87898
3.7601
1.87197
-1.86796
6.16558
-1.88299
3.75283
-4.86427
4.86427
-5.4974
0.141424
-5.4974
5.34607
0.00991104
5.34607
-5.3504
5.3504
-5.3918
-0.0184361
-5.3918
5.40851
0.00172847
5.40851
3.17608
-3.17608
-3.02856
0.0543691
-3.02856
2.92355
0.0506428
2.92355
0.353491
5.27294
-5.97992
8.79246
-5.27294
0.0260056
5.20882
0.0381136
5.20882
-5.10758
0.0366951
-5.10758
5.01002
0.0608692
5.01002
4.88884
-0.117397
4.88884
-4.86305
0.0916095
-4.86305
-3.26705
-3.33955
-5.24768
0.0768792
-5.24768
-2.11048
-0.00139277
-2.11048
2.10262
0.00926035
2.10262
-3.86668
3.86668
-6.14835
0.174947
-6.14835
3.09682
0.0705601
3.09682
1.86986
1.88109
5.62081
-5.62081
2.45343
-5.41926
-0.0117151
-5.41926
-5.46371
-4.2472
5.46371
-0.0327389
-0.975565
0.412092
-0.975565
3.13261
0.0716758
3.13261
2.90101
0.0225437
-2.90101
0.106562
3.58321
-3.58321
2.10736
0.687086
2.10736
-5.58085
5.58085
4.94645
0.0635667
-4.94645
0.0914694
6.15639
0.0621634
6.15639
-6.20041
-0.0181495
-6.20041
3.33265
-6.65775
-3.29652
5.07493
0.0958725
-5.07493
0.130482
3.13008
-0.0161736
3.13008
-3.07469
3.07469
-3.09762
-0.0162896
-3.09762
-1.53859
0.556951
-1.53859
0.779966
0.201672
0.779966
-4.58393
-0.260193
-4.58393
-5.95602
-0.192324
5.95602
-0.349537
2.31514
-2.31514
-1.92333
0.137132
-1.92333
-4.32155
-0.262382
4.32155
-0.168418
-4.07628
-0.076853
-4.07628
-3.08924
-0.00837497
3.08924
-0.020524
3.08382
0.0487961
-3.08382
0.0150991
-1.872
3.7531
-1.87895
3.75092
-4.59638
-0.267888
-4.59638
5.08858
-0.224315
5.08858
5.76525
0.208149
-5.76525
0.267849
5.36631
-0.0202456
5.36631
-5.31354
-0.0368575
-5.31354
5.36663
-0.0162325
5.36663
5.36561
0.000704781
-5.36561
-0.0261959
5.40054
0.00796909
5.40054
3.21013
-0.0340547
3.21013
-3.15204
-0.0240332
-3.15204
3.05369
-3.05369
3.04814
0.00555005
-3.04814
0.0195799
-11.1329
11.1148
-0.0364359
-11.0965
5.17238
5.17238
4.18247
0.706362
4.18247
-5.04462
0.181575
-5.04462
3.27574
-6.57226
3.30618
-6.57323
3.34246
-11.412
3.3032
-6.64275
5.34198
-5.34198
5.31877
0.0232137
-5.31877
0.0710873
-2.12769
0.017206
-2.12769
-3.64486
-0.221821
-3.64486
4.10745
-0.240768
4.10745
-3.05095
3.05095
-3.0541
0.00314902
3.0541
0.0427187
5.41867
-0.0181255
-5.41867
-0.000593304
1.25386
0.209253
-1.25386
0.278294
3.75388
-0.170671
3.75388
-3.39365
-0.189566
-3.39365
-2.08979
-0.0378968
2.08979
0.0175678
-5.82168
0.240835
-5.82168
-11.1896
0.0931131
-11.1515
-6.10729
-6.10729
2.33302
11.1255
-3.14646
-0.00557946
3.14646
-0.0163816
3.06958
-0.0186211
-3.06958
-0.00511623
-3.06504
0.0113467
3.06504
0.00965092
-2.165
0.626412
-2.165
-1.36681
1.36681
-0.937239
-0.429575
0.937239
-0.157274
2.73672
-0.421572
2.73672
2.0213
0.0813163
-2.0213
0.0979683
-3.9532
-0.123082
-3.9532
5.18846
-0.0998809
5.18846
-3.29033
-0.103318
3.29033
-0.0801994
-0.0327491
11.1475
-5.13964
0.0320518
5.13964
-11.2097
11.2417
-3.06254
0.89754
3.06254
1.11993
5.30533
0.275516
-5.30533
0.260704
5.34864
0.0179939
-5.34864
0.00666211
-3.41834
-0.226523
-3.41834
-4.32322
-0.273157
4.32322
-0.215773
-11.4749
-0.199134
11.674
-11.414
6.02081
0.135577
-6.02081
11.3773
-1.88853
-0.426614
1.88853
-0.521715
3.05527
-0.318556
3.05527
3.89297
-0.139083
-3.89297
-0.0602278
-5.23179
-0.0817507
5.23179
-0.0433305
-3.27222
-0.146116
3.27222
-0.216952
-4.22404
4.29571
1.94154
-3.34145
-3.31629
-7.58865
1.82264
1.93046
4.27607
-7.05318
-4.35883
-6.92269
7.24585
-6.98515
-9.53474
9.41734
7.30964
-7.38649
-5.76417
5.80689
6.36975
-6.39027
1.87099
1.88911
10.6315
-10.49
-10.3022
10.0343
10.2215
-10.2399
10.6394
-10.6763
-12.2158
12.2338
-5.68668
5.74105
-6.60996
6.58593
-6.72069
6.64049
-3.26671
-3.30652
9.00891
-8.93203
11.6899
-11.7016
-11.1361
11.311
3.31103
0.984688
3.35982
-1.89624
3.76723
-1.85659
3.79813
3.26164
-6.52835
3.31062
-6.62692
6.02897
5.66093
-5.99623
-1.59241
-5.85368
5.83751
-5.8017
5.81135
8.72897
-9.06209
-1.88484
3.77395
-1.86608
3.79653
-3.40403
-2.36014
3.33347
0.942602
5.5646
3.44431
-5.66048
-1.26222
-7.50402
7.36494
-7.83537
7.64581
-0.429304
5.78957
-5.36026
4.42568
-1.47627
7.26584
5.76958
5.95116
5.86237
-5.58686
1.12277
-6.48304
-6.39157
-2.66186
2.799
2.66988
-2.52097
5.65712
1.65252
5.4887
-5.39612
-1.99037
-5.51921
3.84405
1.96283
3.8472
4.0552
2.31455
4.04682
3.05049
-3.03804
-0.0124514
-3.1149
6.1654
0.735908
-5.47504
-4.53244
6.93578
3.69567
6.94569
-7.28509
-3.20494
-7.01724
-6.112
-4.19024
-6.38516
6.60352
3.43083
6.3792
-7.80087
7.75754
6.7647
3.45678
6.76643
-6.82901
-3.41091
-6.85521
10.3105
-2.67418
-7.63631
-6.85731
-5.35846
6.87354
3.76588
7.44826
4.7855
7.45492
3.51572
6.79477
-7.2816
1.92313
-3.82227
-1.86441
-3.80269
3.69077
2.05028
3.74141
-4.16387
-2.44609
-4.16945
-4.20271
-2.51799
4.23676
2.34917
-4.26117
-3.57421
4.36449
2.27601
3.06476
-7.42359
3.57799
-6.88451
-6.26502
-2.66701
-6.19393
3.94539
2.72341
-6.6688
-2.58296
10.8023
-5.14136
9.20988
-7.28566
-4.41596
-7.28626
-8.34473
-2.79134
-8.53706
-5.68197
5.45545
-5.73502
5.49425
10.4599
-5.50035
-4.9595
-3.84905
-2.54122
3.83395
-0.474128
-3.8263
3.81385
-0.0590668
3.73906
4.72375
4.24962
-3.85651
-1.94519
-3.86163
3.82692
1.98443
3.83827
7.66384
1.06513
7.23459
-6.11244
-2.94965
-6.37263
8.32318
-7.76623
2.95351
-2.99141
5.05364
2.59217
-4.88297
-2.62105
5.91802
-2.84987
-3.06816
-12.051
10.6749
1.37607
-4.78513
-0.359453
0.20402
-5.60001
-3.93473
5.5084
0.442757
11.1177
7.18292
-5.51275
5.75358
6.16127
6.22484
-0.166727
5.81777
-4.92023
4.8687
-2.54196
-2.32673
4.95349
-5.21587
-1.41914
-4.94695
3.52781
0.272825
2.00482
-1.59273
-2.15671
-0.505155
-2.05874
1.60772
1.06216
1.81697
0.997675
1.80132
-2.88052
0.545472
2.33505
-1.88285
-1.9755
-3.38154
-1.23597
4.61752
5.38847
1.97647
-5.32824
-0.190967
2.8241
-2.81484
-0.626344
-2.7552
2.08956
-2.7159
-3.38254
-1.83352
5.21606
-3.34114
-0.520485
3.35976
0.48744
-3.76631
-2.08738
3.7826
0.264226
-3.04679
6.10825
-3.06146
-4.99198
2.59032
3.57507
4.55316
-4.82213
2.45437
2.36776
-1.24706
6.01729
0.928398
5.99705
-9.19332
5.98837
7.66277
3.64824
-7.87092
0.853685
-8.33963
9.5587
-8.33827
-1.22043
4.91418
4.64451
5.10542
5.35443
-3.84597
8.95139
-1.05725
-7.28102
9.39688
-5.74864
5.57276
-11.3214
-10.9272
3.64618
-6.89397
8.50936
-1.61539
-2.35081
-5.45007
9.24478
-0.829253
-8.41552
5.54995
-5.27861
-5.3027
10.5813
-7.9528
8.71361
-2.58829
-6.12532
-6.62974
-4.04653
6.71149
1.04605
-9.81424
11.7374
-3.01947
5.86859
0.897838
5.87656
3.84846
-5.97589
2.12743
4.10433
-6.69262
2.544
-8.51989
-4.74773
9.4026
-4.65487
-7.41475
-6.58679
-0.82796
2.03385
9.70352
-6.81935
5.30258
1.51677
3.33062
0.507653
-3.33617
-0.466528
0.331817
4.38046
-4.71228
4.07323
4.09577
3.28068
1.09978
3.82328
2.01423
-3.8069
-0.362549
-3.97029
1.45231
-1.62113
-3.37895
4.83126
-3.8134
0.434443
-2.61598
-3.47988
6.09585
-4.48038
3.05091
3.05734
5.03534
-4.73856
1.25869
-2.33902
-2.39954
2.55471
-4.17584
1.84954
2.98172
4.12555
0.551346
4.69324
4.70936
-7.41665
0.532141
8.15367
-6.89145
1.61208
5.84284
-6.91466
0.327875
-5.86606
1.17211
-6.31347
-5.49668
5.93552
-8.72685
-5.38589
7.5391
-0.304514
-7.18957
-1.34749
-3.95706
-1.72491
-4.10318
-1.73056
-4.00446
-5.57653
-1.22917
-4.34736
4.22628
-4.30794
-2.07721
4.52372
0.970535
-4.984
4.55738
-4.89139
4.57283
0.116284
3.69756
4.36591
1.82469
-2.45051
4.27519
-6.04248
7.10761
-7.26506
1.22258
2.72066
-5.67031
-4.5444
4.2834
4.03977
4.48507
7.13061
-11.391
4.26034
-8.25013
8.47774
-0.227617
-12.4259
4.17577
-5.29529
2.74008
0.213425
2.75729
0.700855
2.34639
-3.04725
-2.29055
-2.27298
-2.19341
-3.19481
5.38822
1.0284
-3.19515
2.16675
-3.25099
4.2794
-0.111315
-3.08383
5.19647
-2.85008
5.4099
-3.36231
2.04759
3.06795
5.27724
-2.20929
4.17812
-1.58596
1.63774
-3.84703
-1.55707
-2.95124
5.00153
-3.14461
3.57905
-0.28925
3.8683
-3.87141
1.02155
-0.590731
3.50504
3.6116
4.12667
-3.02689
2.78852
-4.37448
-1.05851
-3.82313
-0.841413
-4.5797
-3.20361
7.78331
4.80056
-9.38026
-6.23345
9.45339
-3.21994
7.5555
-5.92832
-1.62718
-4.0342
-3.73202
3.40779
2.40998
9.96548
-0.153737
-5.77458
-5.07397
-3.95403
2.27719
2.5915
-2.14761
3.52369
1.94359
0.0612285
0.617083
1.19988
1.92089
-1.30381
0.114552
1.80634
-1.47818
2.08804
0.736061
-2.16935
0.110615
-1.31368
3.40324
1.02137
-2.08354
0.779729
0.791907
-3.33387
4.62735
-2.34813
-2.27921
5.41926
1.03105
-3.37918
3.9159
-3.64308
1.95571
-3.19169
-1.42347
-5.06655
-3.41402
-2.33099
4.49773
-3.05723
5.0337
1.1152
-4.84273
5.95793
-3.33443
1.5009
-2.93361
3.66968
-0.944969
-1.98865
2.61121
2.60485
-2.7885
0.0332979
-0.177286
2.149
-2.32629
-0.566904
-2.44975
-4.53932
4.80354
-2.05043
4.50479
2.22477
-1.89589
6.40069
1.81217
-3.70806
-3.17981
-3.7003
-1.3403
3.21286
-0.937973
-5.91723
-7.0633
5.91653
0.0805208
-9.04795
10.203
-1.15505
-5.35227
-0.6361
5.55028
-7.42721
0.734595
-4.88322
5.31978
6.24818
6.3287
-8.3228
-0.0927268
-4.89196
1.18827
-6.08023
5.83278
-2.89542
6.5416
-7.02651
4.94929
-6.05597
5.32117
-0.759057
5.5374
-3.40997
2.09891
-6.14544
-5.09939
6.97204
-3.51525
7.86987
-4.04659
11.9165
-7.06606
6.91659
4.99988
-1.37116
-5.9151
-6.85993
5.48877
0.0566619
5.93322
4.82195
-2.80772
4.4594
2.16253
-4.50155
-2.01331
-6.30501
1.80346
-3.24767
-1.84732
3.65078
3.18802
3.69567
1.25124
-3.22914
6.51083
-7.33879
-1.85596
-3.64072
6.75079
-1.26202
3.97864
-7.61936
-2.33483
5.54202
-1.11887
-4.42315
-0.041668
-5.34422
3.00094
-8.34516
5.72591
-7.0734
1.73105
-7.02633
-3.25295
-3.77466
-1.66018
-3.23121
-5.08037
3.4202
-0.904601
3.65278
-6.12369
5.00483
-2.35405
5.77425
-3.54051
-0.562666
3.75746
0.815368
6.58962
-1.12244
-3.42196
-2.13199
3.66859
-1.53659
0.145199
-4.32605
-0.657468
2.27271
3.14655
-5.80052
0.130212
-3.29175
-2.71723
6.75701
6.73616
11.5367
0.145763
7.84502
-1.08801
7.99078
3.39706
3.23979
-2.52314
6.78348
5.26016
6.48275
-0.837658
2.88524
1.91963
1.91824
0.896599
2.22121
1.39039
3.24276
0.19551
-2.07747
5.06566
-9.0197
-0.708918
-8.31333
1.10401
6.20564
-5.10163
3.05825
-0.466749
1.52166
-0.594295
-2.13394
2.72823
-2.92103
-2.07271
-0.266371
-1.56224
2.34197
1.84099
-2.0756
-0.845427
0.370724
-3.78475
2.82096
-2.78766
-0.182815
5.77512
-2.57569
0.249402
-1.07478
-2.20035
-2.70551
2.59489
6.1245
0.276191
3.06303
5.07973
2.99236
0.184636
4.42832
-6.04372
-4.09156
-6.13644
-0.303666
5.24662
2.01375
7.68977
7.01363
5.75161
-1.86775
-9.20654
7.17163
-0.388145
6.94401
-2.52086
-5.8243
6.14406
0.963555
-5.83954
-1.23386
-7.05816
-7.4463
-0.465606
5.47043
-6.12401
5.56135
3.83643
0.510931
-2.91155
-0.863112
3.34113
-0.101336
7.88945
-1.37416
-7.86646
9.24063
-4.83148
4.12256
0.13287
3.39082
2.8611
2.39435
-5.47211
-10.5737
-1.91664
-1.41723
-4.19585
0.421663
-2.26266
6.62203
-2.49947
4.99484
6.74116
8.26282
-3.86353
-5.51673
7.08347
-2.08862
6.1742
)
;

boundaryField
{
    wall-4
    {
        type            calculated;
        value           uniform 0;
    }
    velocity-inlet-5
    {
        type            calculated;
        value           uniform -3.75095;
    }
    velocity-inlet-6
    {
        type            calculated;
        value           uniform -5.62643;
    }
    pressure-outlet-7
    {
        type            calculated;
        value           nonuniform List<scalar> 8(6.4198 6.28918 6.61621 6.72482 6.6066 6.62917 6.58192 6.64566);
    }
    wall-8
    {
        type            calculated;
        value           uniform 0;
    }
    frontAndBackPlanes
    {
        type            empty;
    }
}


// ************************************************************************* //
