/*--------------------------------*- C++ -*----------------------------------*\
| =========                 |                                                 |
| \\      /  F ield         | OpenFOAM: The Open Source CFD Toolbox           |
|  \\    /   O peration     | Version:  2412                                  |
|   \\  /    A nd           | Website:  www.openfoam.com                      |
|    \\/     M anipulation  |                                                 |
\*---------------------------------------------------------------------------*/
FoamFile
{
    version     2.0;
    format      ascii;
    arch        "LSB;label=32;scalar=64";
    class       volVectorField;
    location    "6";
    object      U;
}
// * * * * * * * * * * * * * * * * * * * * * * * * * * * * * * * * * * * * * //

dimensions      [0 1 -1 0 0 0 0];

internalField   nonuniform List<vector> 
918
(
(0.986708 -0.00399538 0)
(0.00500522 2.96624 0)
(-0.00396126 1.70634 0)
(0.974349 0.00816821 0)
(-0.0054665 1.67635 -1.61567e-21)
(-0.00702677 2.94883 -2.22981e-18)
(0.974024 1.34045 5.89284e-19)
(0.539307 0.285246 -9.44881e-21)
(0.999924 -0.00158811 0)
(0.0305769 1.59652 0)
(0.00212153 1.63337 0)
(0.8946 0.0114151 0)
(0.0109985 2.93082 0)
(-0.00126536 2.79729 0)
(-0.0224373 3.23156 1.02141e-18)
(0.00824381 1.63472 -2.67923e-20)
(0.677866 0.12992 5.68934e-19)
(0.246763 1.88418 5.54009e-19)
(0.96862 0.0216855 0)
(-1.43971e-05 1.64146 0)
(0.161109 0.286568 -6.07153e-19)
(0.998988 -0.00358108 0)
(0.999702 -0.00794805 0)
(0.971932 -0.00684201 0)
(0.841733 -0.0118477 0)
(-0.000392547 2.63993 0)
(-0.0149254 2.90999 8.04364e-19)
(-0.00619367 1.71965 0)
(-0.000519272 1.76487 0)
(0.00110005 1.7313 0)
(0.00295968 1.79175 0)
(-0.00293906 1.68892 1.28092e-21)
(-0.00865832 1.63035 0)
(-0.0207373 2.98757 -7.94197e-23)
(-0.0166974 3.00525 1.73304e-18)
(0.00207155 3.00016 0)
(0.939449 0.00795313 0)
(0.169586 0.405515 -2.31926e-19)
(0.901465 1.39644 -6.54767e-19)
(1.04998 1.12663 7.55189e-19)
(0.785193 1.60999 -1.33849e-19)
(0.865952 1.58075 8.14008e-19)
(0.586621 0.344481 9.21945e-21)
(0.581666 0.265446 0)
(1.20585 0.581235 0)
(0.555193 0.347193 4.42884e-20)
(0.518305 0.287129 -4.59509e-20)
(0.929877 0.00424497 0)
(1.00079 -0.000252306 0)
(1.00018 0.000633641 0)
(0.993856 -0.00799576 0)
(1.00011 -0.00249407 0)
(1.00094 -0.00021913 0)
(0.0341856 1.57895 -5.26349e-19)
(0.0319277 1.716 0)
(0.0915418 1.64526 0)
(-0.00192929 1.69351 0)
(-0.00127672 1.59249 0)
(-0.00299864 1.63694 0)
(-0.00785882 1.69416 0)
(-0.0106446 1.62293 0)
(-8.93551e-06 1.70478 0)
(0.00855225 1.62644 0)
(0.957716 0.0045252 0)
(0.942667 0.0110711 0)
(0.910757 0.00815995 0)
(0.928863 0.0195012 0)
(0.879958 0.0117102 0)
(0.0146786 3.00043 8.23188e-19)
(0.0114323 3.00801 0)
(0.0061009 3.00269 0)
(0.0134304 2.99721 9.28205e-24)
(0.00807851 2.9586 -1.22346e-18)
(0.0145288 2.98237 0)
(0.0112871 2.90389 0)
(0.0252016 2.93022 1.79721e-24)
(0.00321886 2.82661 0)
(0.0330651 2.91523 0)
(-0.011084 2.74525 0)
(0.321663 3.63749 0)
(-0.130287 3.73251 0)
(0.147898 3.31757 9.50744e-19)
(0.00726742 3.03239 0)
(-0.00634143 1.76027 0)
(0.00317239 1.70058 2.64333e-20)
(0.00391383 1.64371 -2.79249e-20)
(0.713854 0.16741 -1.9594e-19)
(0.685657 0.0966122 -1.91797e-19)
(0.714792 0.200732 -5.90179e-19)
(0.665502 0.170422 -3.97777e-19)
(0.219024 1.33752 0)
(0.332321 1.96317 -6.35958e-19)
(0.489176 1.92104 1.0351e-18)
(0.981354 0.016119 0)
(0.935241 0.0230463 0)
(1.00074 0.000546034 0)
(1.00039 0.00826059 0)
(0.997354 0.0232035 -1.10565e-18)
(0.98444 0.026498 8.47308e-19)
(-0.00302669 1.69608 0)
(-0.000449058 1.63947 0)
(7.65327e-05 1.73866 0)
(-0.00569928 1.70997 0)
(0.00278838 1.65045 0)
(0.291873 0.35491 1.86125e-19)
(0.351677 0.31 0)
(0.991433 -0.00691816 0)
(0.953325 0.00127383 0)
(0.907805 0.00199552 0)
(0.896854 0.005453 0)
(0.87687 -0.0153088 0)
(1.07414 0.000841182 0)
(0.852076 0.0488629 0)
(0.762866 0.0306255 7.57882e-19)
(-0.0399944 2.87276 5.27121e-19)
(0.0435559 2.90506 0)
(0.0551735 2.8801 0)
(-0.0168069 2.69902 0)
(-0.0128925 2.98577 7.54531e-19)
(-0.0192483 2.8953 0)
(-0.0150971 2.98884 -2.35347e-18)
(-0.0129643 2.92542 8.06585e-19)
(0.00151968 1.77721 0)
(0.00143869 1.76776 0)
(0.00617552 1.70655 -4.74783e-22)
(-0.00601094 1.6993 0)
(0.00178924 1.63357 0)
(0.977354 0.00651804 0)
(0.94376 0.00745333 0)
(0.927659 -0.00732183 0)
(0.97465 0.0102677 0)
(0.936873 -0.00342104 0)
(0.290773 0.767813 2.73109e-19)
(0.295624 0.871338 0)
(0.378089 0.543881 -3.2786e-20)
(0.144095 0.132852 0)
(1.00142 1.18782 -2.13438e-19)
(1.11022 0.928673 4.70323e-19)
(0.483915 1.9259 0)
(0.650396 1.80267 0)
(0.716454 1.79014 0)
(0.485794 0.821491 -3.41086e-19)
(0.640408 0.306056 0)
(0.620093 0.223912 1.14833e-19)
(1.07351 0.996597 0)
(1.13689 0.814056 0)
(1.15625 0.748088 -4.25919e-19)
(1.19633 0.642979 0)
(1.25541 0.42107 6.57449e-20)
(0.971143 -0.00506081 0)
(0.965358 0.00228292 0)
(0.931994 -0.0046603 0)
(0.972207 0.00431767 0)
(0.960267 0.00461896 0)
(0.931151 0.00808014 0)
(0.999528 0.00109372 0)
(1.00033 0.00197151 0)
(0.999781 0.0011069 0)
(0.0254857 1.60201 2.82496e-19)
(0.0459331 1.52117 0)
(0.0149496 1.65449 2.31298e-19)
(0.0135322 1.62182 -4.17343e-19)
(0.175824 1.87735 -4.59643e-19)
(0.0622659 1.76114 0)
(0.120174 1.75794 0)
(-0.00945208 1.70059 0)
(0.0042402 1.60681 0)
(-0.00241564 1.69287 -1.31159e-21)
(0.00515569 1.63338 0)
(0.000908825 1.69731 -6.91261e-20)
(-0.00173738 1.63998 -7.65804e-21)
(-0.00383148 1.70247 0)
(-0.0183119 1.69122 0)
(-0.0046752 1.60762 0)
(0.00701147 1.7 0)
(0.00610033 1.62621 0)
(1.00746 0.00453276 0)
(0.965116 0.000976033 0)
(0.99114 0.00945737 0)
(0.94865 0.0100341 0)
(0.917288 0.00143434 0)
(0.960709 0.0038647 0)
(0.960697 0.000690839 0)
(0.917491 -0.00951579 0)
(0.00481471 3.06661 -7.5227e-21)
(0.0179059 3.05631 0)
(0.0149951 2.96867 0)
(0.00895897 2.87605 0)
(0.902714 4.05649 0)
(1.20104 3.33722 1.00892e-18)
(0.0797783 3.11461 0)
(-0.0180247 2.93048 0)
(-0.000412879 1.75175 0)
(-0.00805209 1.7525 0)
(-0.00446378 1.75415 0)
(-0.00773374 1.78676 2.10825e-21)
(-0.0115558 1.76997 0)
(-0.0010503 1.77186 0)
(0.00768274 1.63935 5.61943e-21)
(0.000779532 1.7039 4.01425e-20)
(-0.00835783 1.70791 2.85942e-20)
(-0.000625726 1.64325 0)
(0.747952 0.129469 2.89549e-19)
(0.705895 0.0535389 -2.79935e-19)
(0.197103 1.41735 0)
(0.298054 1.27565 -2.30568e-19)
(0.12972 1.44335 -6.76005e-19)
(0.151644 1.38441 6.7472e-19)
(0.915539 -0.0011241 0)
(0.962542 0.00359484 0)
(0.966242 0.01149 0)
(0.912449 0.00593651 0)
(-0.00220332 1.69951 0)
(-0.00065253 1.70083 0)
(-0.00148954 1.63546 0)
(0.500348 0.370153 4.16195e-19)
(0.434087 0.371632 -5.42959e-19)
(0.466883 0.289159 0)
(1.18595 0.0808723 -2.20057e-21)
(1.17232 0.0375102 0)
(1.10078 0.0393387 0)
(1.0205 0.00895792 0)
(0.762601 0.0840604 0)
(0.781565 0.0798378 -1.22067e-18)
(0.722261 0.029459 4.66013e-19)
(0.0105616 2.98299 5.95615e-19)
(-0.0328866 2.87196 4.76626e-20)
(0.00361467 3.05107 -1.60145e-20)
(0.0201113 3.04279 5.70404e-19)
(-0.0150623 2.99704 2.65711e-20)
(-0.0129006 2.94963 -1.07369e-22)
(-0.0169915 3.01196 -4.97034e-19)
(0.0144847 3.02427 3.58383e-19)
(0.00717974 3.03623 -5.61773e-19)
(0.992458 0.0108889 0)
(0.988376 0.00423558 0)
(0.949199 0.00446083 0)
(0.964796 -0.00527513 0)
(0.968486 -0.00880723 0)
(0.922145 -0.01782 0)
(0.96449 0.00860492 0)
(0.963797 -0.00118756 0)
(0.920887 -0.00109847 0)
(0.473645 1.17285 4.35787e-19)
(0.565201 1.34631 0)
(0.314605 0.358846 5.46657e-20)
(0.517655 0.672608 2.19004e-19)
(0.468106 0.567326 1.44945e-20)
(0.170242 0.147321 -9.24753e-20)
(0.474649 1.11038 1.66133e-18)
(0.493263 1.02067 3.58155e-19)
(0.685392 0.249334 -4.09105e-19)
(0.664193 0.27364 1.03314e-19)
(0.643065 0.205979 2.16134e-19)
(1.2378 0.475084 2.70504e-19)
(1.2525 0.258869 2.95205e-19)
(-0.00602676 1.68299 1.94752e-19)
(-0.00686242 1.62977 0)
(1.04922 0.0232979 0)
(1.01607 0.0156413 0)
(0.996408 0.00704131 0)
(0.0105179 3.07339 0)
(0.0195901 2.94347 1.02642e-18)
(0.0162944 2.95567 0)
(0.00624281 2.85083 -1.01866e-18)
(0.0045652 3.09006 2.48346e-19)
(0.00620334 3.0842 0)
(0.605156 1.70941 -2.12209e-19)
(1.18309 2.49982 5.29966e-19)
(0.61855 1.89642 -1.40076e-18)
(0.0221212 2.98848 -4.83644e-19)
(0.0436195 3.02159 0)
(-0.0347559 2.88947 0)
(-0.00599902 1.69059 -9.7048e-21)
(0.00234405 1.69551 -1.87731e-21)
(-0.00279765 1.63722 -3.88156e-21)
(0.258945 1.35207 7.34856e-19)
(0.346975 1.23074 -5.13202e-19)
(0.033471 1.54775 4.50816e-19)
(0.0767685 1.5064 -5.65623e-19)
(0.0768908 1.44137 6.60684e-20)
(0.00214595 3.11865 -1.51033e-18)
(0.0163033 3.11743 1.62019e-18)
(-0.00787378 2.97964 6.81991e-19)
(-0.00161721 2.97812 -6.27233e-19)
(-0.0197695 2.88335 -6.94588e-19)
(0.00879878 3.09703 -1.84095e-18)
(0.00135391 3.10468 1.79769e-18)
(0.508726 0.987372 0)
(0.541247 0.818107 -1.13854e-18)
(0.45045 0.618605 5.21742e-19)
(0.431145 1.21174 9.88257e-19)
(0.457946 1.1294 -1.53436e-18)
(1.26117 0.169102 -4.86499e-20)
(1.25714 0.309867 0)
(1.24839 0.119624 1.17065e-19)
(0.00448119 1.6882 -1.68332e-21)
(-0.0124032 1.68276 0)
(0.000630361 1.61779 0)
(0.303222 1.32817 -2.66932e-19)
(0.364432 1.30056 -6.16529e-19)
(0.40401 1.19822 1.13187e-18)
(1.00215 -0.0331223 0)
(1.00485 -0.0206443 2.04882e-19)
(0.00175211 1.77597 0)
(-0.00691217 1.7835 0)
(1.00303 0.00609059 3.5606e-21)
(0.996638 0.0119226 4.18972e-19)
(-0.00897096 1.78651 -2.72847e-21)
(-0.00887565 1.78608 0)
(0.0620435 3.19319 3.13408e-19)
(0.446584 3.59002 0)
(1.11061 0.61974 4.66354e-20)
(1.011 0.00924159 -1.41811e-21)
(1.0044 0.0125041 0)
(1.0038 -0.00302573 -3.3239e-22)
(0.0535585 1.84037 0)
(0.0892678 1.70713 0)
(0.00216176 1.79376 0)
(0.0108655 1.77401 9.3539e-20)
(0.00306604 1.76762 4.64599e-20)
(0.994719 0.0210589 1.58192e-21)
(1.04057 -0.000700178 0)
(1.0633 0.0311897 0)
(-0.00529586 1.74903 0)
(-0.000446261 1.78027 0)
(-0.00371917 1.7854 0)
(0.214825 1.92724 -2.44042e-19)
(0.998953 -0.0320104 0)
(0.991376 -0.0285792 0)
(1.01229 -0.00187912 2.59013e-19)
(1.005 -0.0136357 -3.04287e-19)
(1.00361 -0.0026358 0)
(0.00284062 1.73858 0)
(0.00495919 1.76571 0)
(0.00381013 1.75023 0)
(-0.00860769 1.78783 0)
(-0.00667157 1.78237 0)
(-0.0104989 1.78668 0)
(1.01813 -0.00119208 0)
(1.0139 0.00849051 -8.81308e-22)
(0.662801 1.32116 3.33248e-19)
(1.00388 -1.2843e-05 -2.54546e-19)
(1.0082 0.0113654 3.16043e-19)
(1 0.00205351 0)
(1.01332 0.0143189 2.45744e-19)
(1.00179 0.00898782 -3.16917e-19)
(0.989569 0.0187127 0)
(-0.00250002 1.78745 0)
(-0.0072359 1.78731 1.72714e-20)
(-0.00727123 1.78703 -1.28016e-20)
(1.15657 0.249485 -1.86333e-20)
(1.09981 0.0810008 0)
(0.0315679 3.0667 -7.83251e-19)
(0.0729787 2.83761 -5.85353e-20)
(0.181801 3.17251 1.3663e-18)
(0.1798 3.20878 -1.11758e-19)
(0.162396 3.26692 0)
(0.0149052 3.14454 1.93709e-19)
(0.0877992 3.15111 7.66301e-19)
(0.0852704 3.17237 -3.8113e-19)
(0.02396 3.13216 0)
(0.699935 0.35616 0)
(0.637605 0.390316 0)
(1.02075 0.636867 -1.81697e-19)
(1.05045 0.805163 -6.50896e-20)
(1.12022 0.537013 0)
(1.1585 0.532648 0)
(1.01421 0.000745058 -4.82491e-19)
(1.01879 -0.00267809 -1.89851e-21)
(1.01241 0.00882778 0)
(1.01325 0.0108595 0)
(1.01104 0.00436925 0)
(1.01992 0.00865884 0)
(1.00986 -0.00394448 0)
(1.02381 0.0125733 0)
(1.02006 0.0168911 0)
(1.02098 0.00785726 0)
(0.0310369 1.82664 0)
(0.00685261 1.83123 0)
(0.0920722 1.8696 0)
(0.0696089 1.88193 0)
(0.0831205 1.6999 0)
(0.0686843 1.67787 -3.03048e-19)
(0.0846015 1.73114 0)
(0.0601035 1.72927 1.61553e-19)
(0.0078408 1.75202 -1.68724e-19)
(0.0031347 1.79315 0)
(0.00157104 1.7916 0)
(0.00397834 1.79924 0)
(0.00445713 1.81513 0)
(0.00202453 1.76357 -5.32894e-20)
(-0.00139494 1.77187 6.33118e-20)
(0.00192342 1.7788 8.03195e-20)
(0.00157741 1.77634 0)
(0.00473229 1.7731 -1.0375e-19)
(0.0086216 1.77119 -6.73963e-20)
(-0.000682836 1.76093 4.34893e-20)
(-0.00738296 1.76361 -8.47278e-20)
(-0.0031058 1.77184 -9.9994e-20)
(1.00147 0.0212758 4.53967e-19)
(1.00544 0.0114213 4.08571e-21)
(1.00098 0.0123369 -4.8402e-19)
(0.977016 0.00766162 6.0464e-19)
(1.03996 0.00616863 0)
(1.04595 -0.00946508 0)
(1.05682 0.0285054 0)
(1.04404 0.000348725 0)
(1.06287 0.01631 0)
(1.08031 0.0743125 0)
(1.06429 0.0363775 0)
(1.08854 0.0324772 0)
(-0.00751582 1.78685 -1.57889e-21)
(-0.0058694 1.75671 0)
(-0.011646 1.77247 0)
(0.00322885 1.78237 1.34544e-20)
(0.00396005 1.7817 -8.50014e-22)
(0.0156569 1.73669 2.09487e-20)
(0.00437941 1.74037 -2.14459e-20)
(-0.00383343 1.77442 0)
(-0.00126886 1.77104 0)
(-0.000502041 1.76828 0)
(0.000425141 1.78637 0)
(0.000633266 1.78197 0)
(0.348821 1.90628 3.87371e-19)
(0.345368 1.91031 1.81528e-19)
(0.308695 1.57668 -1.81698e-19)
(0.144167 1.60603 4.58381e-19)
(0.246449 1.68131 1.18901e-19)
(1.00174 0.0116079 0)
(0.99069 -0.0173802 0)
(0.987103 -0.01376 0)
(1.03153 -0.0112537 0)
(1.01831 -0.0221351 0)
(1.01233 -0.0229174 0)
(1.00037 -0.0166695 0)
(1.01116 0.00451582 0)
(1.01396 0.00736302 4.44765e-19)
(1.01802 0.00761676 -5.66493e-19)
(1.01297 0.00678206 -4.34573e-19)
(1.01375 -0.00274344 5.68242e-19)
(0.660562 1.46227 0)
(0.57361 1.58961 3.13325e-19)
(0.775553 1.21874 1.95123e-19)
(0.834833 1.16258 -2.59687e-19)
(0.810175 2.46648 -1.0549e-18)
(0.83924 0.109297 2.90134e-19)
(1.10467 0.0845832 0)
(1.13104 0.163786 1.66919e-20)
(1.13719 0.141144 1.62044e-21)
(0.97118 0.0961185 0)
(0.172238 2.92351 3.7163e-19)
(0.132139 2.82771 -1.1038e-18)
(-0.017041 2.39215 7.37583e-19)
(0.0867826 0.187451 -2.98888e-19)
(0.388026 3.49453 -4.15221e-19)
(0.248629 3.34084 0)
(0.271663 3.44039 5.40647e-19)
(0.295673 3.01838 -1.44243e-18)
(0.426351 3.22879 0)
(0.0102233 3.11975 3.81283e-20)
(0.0183392 3.12813 -4.63343e-19)
(0.017221 3.12455 6.81987e-19)
(0.0401995 3.13841 0)
(0.0378846 3.14708 0)
(0.963703 2.60134 0)
(0.589353 0.711833 -1.29472e-19)
(0.943446 0.971569 -1.39933e-19)
(0.89901 1.01262 0)
(0.713926 0.955957 4.86807e-20)
(0.981428 0.822944 1.31617e-20)
(0.390427 0.538801 -7.28656e-19)
(0.717475 0.341146 -2.38322e-20)
(0.731169 0.308779 2.1866e-19)
(0.621223 0.441154 1.93076e-20)
(0.566878 0.428861 -8.17879e-19)
(0.697261 0.371585 0)
(0.699561 0.425624 3.6271e-19)
(0.694118 0.407027 0)
(0.652975 0.403497 0)
(0.666954 0.376997 0)
(0.77307 0.552049 1.00156e-19)
(1.16436 0.263245 -4.6466e-20)
(1.14665 0.397566 0)
(1.18227 0.353658 0)
(0.797667 0.220751 3.38094e-19)
(0.798291 0.494864 -1.80445e-19)
(0.712636 0.461328 -2.84339e-19)
(0.876221 0.407476 -2.79146e-19)
(1.01944 -0.00301868 3.0372e-19)
(1.01888 -0.00659781 -3.1035e-19)
(1.01955 -0.00488834 0)
(1.01853 0.003522 0)
(1.01893 0.0114951 -2.90715e-19)
(1.0214 -0.00156102 2.82098e-19)
(1.01191 0.00121177 0)
(1.00767 0.00223737 0)
(1.02655 0.00101533 0)
(1.02111 -0.00604128 0)
(1.01958 0.00548533 0)
(1.0236 0.00410332 0)
(-0.00116965 1.83153 0)
(-0.00129867 1.82802 0)
(0.145478 1.85329 3.16854e-21)
(0.20708 1.90267 1.14949e-19)
(0.104567 1.92228 2.51805e-19)
(0.108592 1.92453 -1.33372e-19)
(0.152759 1.86935 0)
(0.137753 1.75814 -1.17743e-19)
(0.131975 1.7712 0)
(0.24578 1.67795 -1.73146e-19)
(0.186596 1.63578 5.56161e-19)
(0.160237 1.79584 1.06945e-19)
(0.209708 1.85475 3.79898e-20)
(0.168679 1.86417 3.04053e-20)
(0.254057 1.80186 -1.00054e-19)
(0.200936 1.76248 1.09354e-19)
(0.204933 1.75523 9.55316e-20)
(0.0214705 1.76776 -4.93771e-20)
(0.00364205 1.7441 0)
(0.03548 1.73181 1.83217e-19)
(0.0148162 1.73635 0)
(0.0462824 1.73275 -1.79553e-19)
(0.0149547 1.737 0)
(0.0017751 1.76385 -3.98257e-20)
(0.00540229 1.76121 0)
(0.00313194 1.77023 0)
(0.00438 1.76644 4.57525e-20)
(0.0129799 1.77351 -2.04875e-22)
(0.019209 1.7684 2.03393e-19)
(0.016262 1.77543 1.37556e-21)
(-0.00716788 1.76044 3.32768e-20)
(-0.00630417 1.75958 -2.13171e-20)
(0.00357158 1.79072 0)
(-0.0023438 1.78656 0)
(0.0143479 1.76587 1.12014e-19)
(0.0113228 1.76422 8.22195e-20)
(0.00824546 1.75975 -1.15676e-19)
(0.0294847 1.78272 0)
(0.0112495 1.75783 -5.63936e-20)
(0.00444929 1.75942 2.61202e-20)
(0.0013274 1.76063 -8.19306e-21)
(-0.00788041 1.76285 -4.17502e-20)
(0.0077545 1.76741 -1.33817e-20)
(0.00383089 1.77255 6.6402e-20)
(1.01349 -0.00429648 -2.99805e-19)
(1.01161 0.00664244 2.93563e-19)
(1.01285 -0.00110506 0)
(0.985593 0.0660302 4.4605e-19)
(0.973182 0.0232196 -5.01167e-19)
(0.943987 0.0122213 5.78855e-19)
(0.98015 0.0785508 -5.83094e-20)
(1.02685 0.00825737 0)
(1.03595 0.00425349 2.63288e-19)
(1.03359 0.00428057 -2.62463e-19)
(1.01545 0.0274287 -1.52229e-20)
(1.01972 0.0173178 1.34935e-19)
(0.998431 0.0348113 0)
(0.985297 0.0280895 -4.69528e-20)
(1.00905 0.0186567 0)
(1.00108 0.023702 0)
(1.01395 0.00291027 0)
(1.01583 0.00174506 0)
(1.00316 0.0120688 9.91687e-20)
(1.0021 0.0170017 -2.17225e-19)
(0.988088 0.0196775 -1.05226e-19)
(0.980444 0.012173 -1.16724e-19)
(0.993353 0.052632 2.11632e-19)
(1.04147 0.0466921 0)
(1.03212 0.0966788 0)
(0.0228616 1.76128 -2.23964e-20)
(0.0154788 1.7532 -2.38806e-21)
(0.0216274 1.7492 0)
(0.0117646 1.77522 2.28645e-20)
(-0.00470302 1.78303 3.91957e-21)
(0.00252027 1.78148 -4.17818e-21)
(0.00930695 1.77346 5.89869e-20)
(0.00103709 1.76464 -3.49949e-21)
(0.00806238 1.76588 1.74387e-20)
(0.0113544 1.77226 -3.01734e-20)
(0.00865477 1.77215 -2.83924e-21)
(0.00468051 1.76116 1.11696e-23)
(0.0206423 1.75425 2.72892e-20)
(0.331244 1.80448 -1.66367e-19)
(0.268748 1.79243 9.65506e-20)
(0.576148 1.71136 -2.99442e-19)
(0.46126 1.85643 -1.81441e-19)
(0.490371 1.79147 0)
(0.334918 1.58061 1.87924e-19)
(0.344736 1.56089 2.72413e-19)
(0.19805 1.60456 3.99273e-20)
(0.191271 1.59989 -6.24496e-19)
(0.264819 1.60176 4.95545e-19)
(0.289413 1.60612 0)
(0.216742 1.60745 -3.81209e-19)
(0.0730488 1.65808 7.82528e-19)
(0.128443 1.63734 -4.38761e-20)
(0.0531563 1.63358 -1.07005e-18)
(0.771004 1.46756 8.13452e-19)
(0.596535 1.50505 0)
(1.0367 -0.00776268 9.77727e-21)
(1.02279 0.0192925 -8.41297e-21)
(1.02022 0.0282558 -1.46675e-19)
(1.02223 0.0179939 1.48063e-19)
(1.03165 -0.00233706 0)
(0.327286 1.38679 0)
(0.237033 1.25653 0)
(0.530879 1.00768 0)
(0.306352 1.06228 0)
(0.824678 2.41843 1.84226e-19)
(0.832135 2.09279 0)
(0.460619 2.37373 4.83269e-21)
(0.516229 1.81383 0)
(0.617386 1.9328 -5.82143e-19)
(0.582908 2.06333 0)
(0.851576 0.138862 0)
(0.830897 0.167357 8.41236e-20)
(0.919248 0.107447 4.20914e-19)
(0.863714 0.105551 -1.6668e-19)
(0.849796 0.0796247 -5.2164e-19)
(0.996816 0.200977 -2.59371e-19)
(0.919748 0.27741 -1.24071e-20)
(0.842728 0.262109 3.84756e-19)
(0.916429 0.205229 2.95759e-19)
(0.941568 0.145034 -5.35089e-19)
(0.91213 0.146774 6.83075e-20)
(0.883356 0.219496 -1.38471e-19)
(0.912974 0.177904 0)
(0.961344 0.14436 -2.55156e-19)
(0.96173 0.142628 0)
(0.963211 0.189726 0)
(1.05314 0.0924162 9.07326e-20)
(0.98586 0.128442 -1.37946e-20)
(0.992957 0.193886 -1.33855e-19)
(1.05154 0.185118 0)
(1.01312 0.0326458 2.28036e-19)
(1.00493 0.0424403 2.78902e-19)
(1.01164 0.0383427 -2.24578e-19)
(1.01555 0.0569942 -1.87732e-19)
(0.998707 0.0652363 -3.14074e-19)
(0.947851 0.074879 0)
(0.948091 0.0706936 0)
(0.932824 0.0517541 -2.08111e-19)
(0.910064 0.0630516 8.80338e-20)
(1.00863 0.0872731 2.63353e-19)
(0.991801 0.100196 -2.72549e-19)
(1.00168 0.106869 2.39763e-19)
(0.999172 0.115138 0)
(1.0054 0.0873546 0)
(0.999657 0.0817852 -1.15318e-19)
(1.011 0.0849221 -2.10913e-19)
(0.0198708 1.81811 -1.28481e-19)
(0.189727 2.68172 1.04879e-19)
(0.762193 3.04508 3.31474e-19)
(0.996468 3.33179 -1.38128e-19)
(0.937829 2.74091 1.20248e-18)
(1.01804 2.76216 -4.57412e-19)
(0.870573 2.13812 4.96678e-21)
(0.938288 3.19019 4.4325e-19)
(0.931889 3.13937 -5.75657e-19)
(1.03646 3.46088 -3.34604e-19)
(1.22729 3.11233 4.71599e-19)
(1.25041 2.95179 0)
(0.620212 0.689426 1.80364e-20)
(0.258478 1.20766 5.38957e-19)
(0.460822 0.65004 4.5316e-19)
(0.334717 0.408326 5.45076e-19)
(0.563375 0.45152 4.58604e-19)
(0.568386 0.485881 -6.97824e-19)
(0.547542 0.553461 5.72729e-19)
(0.502702 0.505011 -2.66307e-19)
(0.492636 0.470312 5.81268e-19)
(0.799953 0.257253 5.80633e-19)
(0.759246 0.294894 0)
(0.765364 0.274667 1.22699e-20)
(0.693381 0.490969 1.83008e-19)
(0.66014 0.46556 -6.81324e-19)
(0.59589 0.507612 3.36705e-20)
(0.638631 0.475845 0)
(0.661496 0.614566 7.7913e-20)
(0.776659 0.759051 -1.40089e-20)
(0.700519 0.790862 2.92347e-21)
(0.795741 0.697716 -1.5354e-20)
(0.839253 0.816344 1.29567e-20)
(0.833287 0.789986 -1.32568e-20)
(0.806975 0.545961 -1.86237e-19)
(0.877487 0.608869 1.44079e-20)
(0.946036 0.653552 0)
(0.939528 0.636196 -1.94562e-20)
(0.945596 0.2887 7.05535e-20)
(1.07638 0.282518 1.64644e-20)
(0.982042 0.237136 1.0562e-19)
(0.930551 0.333325 -1.55751e-19)
(0.974508 0.393138 0)
(1.02266 0.374757 0)
(0.842521 0.335825 1.18127e-20)
(0.81081 0.302819 0)
(0.832174 0.282088 1.97847e-19)
(0.836007 0.270819 -7.80488e-21)
(0.865317 0.410037 7.60803e-19)
(0.82597 0.470931 1.90184e-19)
(0.817508 0.443455 -2.52506e-19)
(0.752355 0.407177 -2.72973e-19)
(0.733557 0.408944 1.82643e-19)
(0.71746 0.407233 -1.78795e-19)
(1.01308 0.00826145 2.45869e-19)
(1.01097 -0.000582987 0)
(1.00917 0.0143254 1.62742e-19)
(1.01244 0.010535 -3.55419e-21)
(1.01139 0.00411188 1.76241e-19)
(1.01355 0.010299 -3.68007e-19)
(1.01091 0.00161479 0)
(1.01002 -0.0061812 -7.64815e-20)
(1.01327 0.00121 1.93464e-19)
(1.01806 -0.0040365 -9.76891e-20)
(1.01693 -0.00243789 7.20171e-20)
(0.00348416 1.81729 0)
(0.00189993 1.77197 0)
(0.00045594 1.82327 0)
(0.00413128 1.82143 0)
(0.0273773 1.79182 6.03022e-20)
(0.0403948 1.80701 -1.71109e-20)
(0.0949618 1.78141 -3.28485e-20)
(0.0983314 1.79478 -1.77667e-20)
(0.0131863 1.77209 -7.78157e-20)
(0.0132262 1.77615 5.65876e-20)
(0.022319 1.78821 -1.88972e-20)
(0.00552819 1.79075 2.33869e-20)
(0.00589954 1.786 -2.11566e-21)
(0.0018269 1.77794 7.65516e-21)
(0.06099 1.74186 -1.95527e-19)
(0.0835236 1.74328 0)
(0.0891012 1.73648 1.23909e-19)
(0.112884 1.76761 7.68536e-20)
(0.147543 1.71763 -8.59966e-20)
(0.10972 1.65911 0)
(0.109524 1.64559 -5.68571e-19)
(0.163033 1.64052 3.99368e-19)
(0.144989 1.72408 -3.20701e-19)
(0.117504 1.72592 1.33233e-19)
(0.0810693 1.68939 0)
(0.0192722 1.76446 -1.29485e-19)
(0.0142698 1.76374 -1.77593e-19)
(0.0123147 1.76256 0)
(0.029184 1.77091 -3.86196e-21)
(0.0284641 1.77228 6.79263e-20)
(0.00321259 1.77741 7.18574e-21)
(0.00647423 1.78397 -1.13001e-19)
(0.00509242 1.78062 2.87397e-20)
(-0.00654006 1.76163 4.1996e-20)
(0.00249306 1.76323 0)
(0.00065708 1.78606 0)
(-0.00208107 1.78706 3.35545e-20)
(0.00062063 1.78862 -9.34187e-21)
(0.000179063 1.78882 0)
(-0.0027218 1.78801 2.84297e-20)
(-0.00725219 1.78435 -5.45654e-20)
(1.00458 0.0170902 0)
(1.00581 0.0221332 -2.35037e-20)
(1.00483 0.012666 -1.72356e-19)
(1.01359 0.0199797 0)
(1.01491 0.0271886 0)
(1.00034 0.00780212 -7.18573e-21)
(1.00168 0.00814655 2.84787e-19)
(1.0037 0.00962638 3.53622e-19)
(1.01742 0.005119 0)
(1.01627 0.00656213 0)
(1.0022 0.0163851 1.79414e-19)
(1.00166 0.0145771 0)
(1.00697 0.0135914 0)
(0.00548754 1.74537 0)
(0.0117645 1.76028 1.12075e-21)
(0.0104014 1.75207 1.33814e-20)
(0.000907807 1.78611 0)
(0.000590415 1.77018 1.72039e-20)
(0.00411799 1.78098 -9.27028e-21)
(-0.000280515 1.78622 0)
(0.352174 1.72625 0)
(0.290303 1.76482 -2.2886e-19)
(0.268765 1.74576 0)
(0.341592 1.7558 3.16033e-20)
(0.361091 1.77357 0)
(0.357661 1.79448 -3.56214e-20)
(0.782268 1.81886 -1.76564e-20)
(0.784975 1.4597 -1.02902e-18)
(0.856825 1.44719 9.4071e-19)
(0.639031 1.50351 2.81259e-19)
(0.612867 1.62745 0)
(0.676918 1.66721 0)
(0.743016 1.46449 0)
(0.703234 1.45917 -1.00607e-18)
(0.408118 1.73427 -5.26631e-19)
(0.532235 1.61766 -1.45856e-19)
(0.531645 1.74529 1.17684e-19)
(0.401897 1.55638 0)
(0.546842 1.53431 0)
(0.466443 1.54521 -3.18546e-19)
(0.495822 1.60953 0)
(0.328007 0.928054 0)
(0.429474 0.60946 9.01169e-19)
(0.618317 0.56514 5.64161e-20)
(0.00745325 1.15229 0)
(0.332572 1.26734 -1.36409e-18)
(0.709783 0.789474 4.19555e-20)
(0.664851 0.898565 0)
(0.663361 0.913251 -7.55288e-20)
(0.551438 0.696042 0)
(0.59039 0.744269 0)
(0.75285 2.65869 1.29805e-19)
(0.726025 2.93377 -1.274e-20)
(0.434186 2.76003 -1.10311e-19)
(0.395224 2.56397 -6.77164e-20)
(0.801938 2.33399 0)
(0.792511 2.24093 1.05098e-19)
(0.841488 2.03152 8.57192e-20)
(0.880101 1.77432 3.74322e-21)
(0.236692 2.02726 0)
(0.0201842 1.71672 1.11676e-19)
(0.0859371 1.68521 0)
(0.889142 0.193839 0)
(0.833957 0.174388 0)
(0.800713 0.17551 0)
(0.873344 0.213235 -3.10767e-19)
(0.81823 0.209615 1.97522e-19)
(0.902025 0.0675335 -1.83289e-19)
(0.911463 0.0895474 0)
(0.913949 0.0896737 7.81924e-20)
(0.866646 0.084523 3.3401e-19)
(0.873524 0.0717091 -2.06751e-19)
(1.08424 3.5362 -7.72098e-19)
(1.08098 3.50532 0)
(1.10798 3.506 -1.62295e-18)
(0.673521 3.65453 1.65404e-18)
(0.896024 3.21611 4.86777e-19)
(0.66642 0.723103 -1.16314e-19)
(0.553722 0.816205 0)
(0.597978 0.580718 -8.61796e-20)
(0.593114 0.641943 -2.15084e-19)
(0.555591 0.639678 -1.28273e-19)
(0.52768 0.578527 1.4109e-19)
(0.610523 0.532211 2.75901e-19)
(0.669633 0.514461 0)
(0.649526 0.622321 0)
(0.579876 0.592447 0)
(0.976796 0.555458 -4.19317e-20)
(0.826841 0.488341 -1.83035e-19)
(0.833933 0.522667 8.86066e-20)
(0.857518 0.499821 -1.36607e-19)
(0.99536 0.461156 0)
(1.01934 0.522559 -7.94326e-21)
(0.779356 0.374146 -4.10765e-19)
(0.792464 0.36824 6.06601e-19)
(0.760193 0.368593 3.2081e-19)
(0.752248 0.350072 -3.56192e-19)
(0.794061 0.317848 -2.70074e-19)
(0.754085 0.31902 3.32595e-19)
(1.0124 -0.00471551 -1.87702e-19)
(1.01877 -0.00214698 3.73641e-19)
(1.002 0.00466777 2.35102e-19)
(1.0038 0.0175352 -2.81405e-19)
(0.996126 0.0209287 0)
(1.00543 0.00614032 -4.43821e-19)
(0.0410406 1.78506 2.96897e-20)
(0.0392884 1.78015 0)
(0.05835 1.76923 2.39401e-19)
(0.0842525 1.78447 -2.11935e-19)
(0.0708306 1.79557 6.14403e-20)
(0.0538584 1.78082 0)
(-0.00741978 1.75572 0)
(-0.00296313 1.77294 -1.13279e-20)
(0.000851487 1.7799 1.03414e-20)
(0.000716865 1.77238 5.02032e-21)
(0.000184675 1.74817 -2.04523e-20)
(0.00254606 1.75409 -3.46596e-20)
(0.319629 1.89131 -5.7305e-19)
(0.33812 1.8005 -6.36949e-19)
(0.333765 1.75329 -1.1163e-19)
(0.363331 1.77873 2.40964e-20)
(0.361278 1.51012 0)
(0.39008 1.72126 1.63816e-19)
(0.383751 1.63151 -1.5865e-19)
(0.306252 1.75163 1.16563e-19)
(0.28513 1.7451 0)
(0.211671 1.71296 0)
(0.390014 1.64697 8.11831e-19)
(0.393807 1.5795 1.28508e-18)
(0.450076 1.61111 -8.72163e-19)
(0.364252 1.60174 -1.59009e-19)
(0.316899 1.63531 2.63649e-19)
(0.259167 1.60196 -6.49502e-19)
(0.867044 1.53117 -5.14888e-19)
(0.880511 1.69573 0)
(0.904675 1.53363 -2.36974e-19)
(0.813033 2.04919 0)
(0.811033 1.96021 0)
(0.889085 2.54727 7.75407e-19)
(0.951651 3.39468 8.29208e-19)
(0.851648 3.23513 -6.39779e-19)
(0.529692 0.979482 0)
(0.654665 0.93478 -6.44396e-20)
(0.757456 0.792325 5.03398e-20)
(0.818666 2.08387 0)
(0.677657 2.85005 -3.79011e-19)
(0.584206 2.52798 0)
(0.67317 0.611896 -1.67347e-19)
(0.742477 0.656407 2.80457e-19)
(0.75106 0.611262 2.26899e-19)
(0.668162 0.587908 3.26909e-20)
(0.678023 0.590356 -1.51268e-19)
(0.856345 3.10269 -6.29142e-19)
(0.810888 3.22698 7.52018e-19)
(0.854972 2.61505 -1.33099e-18)
(0.764915 2.42983 8.86255e-19)
(0.472854 2.64359 9.59469e-19)
(0.723138 2.87763 -5.25481e-21)
(0.562375 3.00311 -5.69978e-19)
(0.700758 2.44298 -5.53214e-20)
(0.48263 2.48227 -1.26735e-18)
)
;

boundaryField
{
    wall-4
    {
        type            noSlip;
    }
    velocity-inlet-5
    {
        type            fixedValue;
        value           uniform (1 0 0);
    }
    velocity-inlet-6
    {
        type            fixedValue;
        value           uniform (0 3 0);
    }
    pressure-outlet-7
    {
        type            zeroGradient;
    }
    wall-8
    {
        type            noSlip;
    }
    frontAndBackPlanes
    {
        type            empty;
    }
}


// ************************************************************************* //
