/*--------------------------------*- C++ -*----------------------------------*\
| =========                 |                                                 |
| \\      /  F ield         | OpenFOAM: The Open Source CFD Toolbox           |
|  \\    /   O peration     | Version:  2412                                  |
|   \\  /    A nd           | Website:  www.openfoam.com                      |
|    \\/     M anipulation  |                                                 |
\*---------------------------------------------------------------------------*/
FoamFile
{
    version     2.0;
    format      ascii;
    arch        "LSB;label=32;scalar=64";
    class       volScalarField;
    location    "26";
    object      p;
}
// * * * * * * * * * * * * * * * * * * * * * * * * * * * * * * * * * * * * * //

dimensions      [0 2 -2 0 0 0 0];

internalField   nonuniform List<scalar> 
918
(
0.241604
0.911041
0.0214516
0.240902
-0.0111241
0.878091
-0.818571
0.417258
0.221682
-0.398929
-0.419364
0.213148
0.738807
0.505421
-1.44378
-0.192144
0.371101
-0.696692
0.220675
-0.0645388
0.467172
0.228326
0.231369
0.221966
0.283062
0.488094
0.619642
0.00387828
0.0136724
0.00240182
-0.0109601
-0.0579438
-0.074244
0.761722
0.812819
0.835495
0.190553
0.0180248
-0.673846
-0.747498
-0.735591
-0.86464
0.409064
0.413547
-0.481155
0.417662
0.42977
0.209089
0.221024
0.221961
0.223081
0.221993
0.223403
0.115091
-0.40415
-0.439268
-0.381292
-0.373028
-0.203743
-0.420149
-0.401464
-0.416907
-0.39109
0.143997
0.21027
0.207494
0.217987
0.225657
0.850589
0.822492
0.848625
0.762391
0.778834
0.716758
0.689229
0.525469
0.547144
0.491121
0.477631
-1.8861
-2.85746
-0.843248
-0.586711
-0.0036111
-0.222022
-0.249887
0.360546
0.363447
0.37032
0.383358
0.766163
-0.690967
-0.832915
0.22073
0.219523
0.228057
0.228741
0.224749
0.223845
-0.100851
-0.151789
-0.0220831
-0.046166
-0.0441903
0.452542
0.448069
0.222525
0.219564
0.233291
0.255798
0.245484
-0.0154673
0.290526
0.309095
0.305
0.473548
0.470588
0.47836
0.59332
0.556562
0.656669
0.680028
0.00562106
0.00353557
-0.177928
-0.0981621
-0.127009
0.186638
0.17966
0.204716
0.193831
0.196118
-0.0662749
-0.202623
0.103659
0.12682
-0.583175
-0.648425
-0.754927
-0.768999
-0.877375
0.261778
0.400171
0.401664
-0.498452
-0.417452
-0.55896
-0.343776
-0.409488
0.199513
0.206425
0.201466
0.216771
0.211316
0.213252
0.225313
0.222396
0.223936
0.179958
0.301124
0.0509754
0.026756
-0.553819
-0.454486
-0.542645
-0.358833
-0.364945
-0.205149
-0.167765
-0.211809
-0.203969
-0.367416
-0.384598
-0.370814
-0.371049
-0.329479
0.136965
0.126541
0.155173
0.1622
0.202056
0.203154
0.205311
0.204116
0.640013
0.662502
0.669865
0.643485
-3.86799
-6.6906
-0.25441
-0.113396
-0.00375599
0.00150005
-4.35943e-05
0.00525011
0.00299367
-0.00756637
-0.251372
-0.261299
-0.262109
-0.268925
0.345191
0.346301
0.682599
0.675254
0.668326
0.622041
0.208821
0.210989
0.216532
0.212383
-0.293029
-0.201785
-0.239799
0.426906
0.439104
0.437672
-0.0510969
-0.136006
0.0306059
0.0577061
0.331335
0.314381
0.330489
0.368486
0.404903
0.687532
0.70577
0.704011
0.712328
0.756311
0.77267
0.738078
0.167548
0.176856
0.17196
0.208003
0.205601
0.206609
0.201701
0.203333
0.200961
-0.356278
-0.743617
0.185468
0.205498
0.173236
0.188814
0.338294
0.411063
0.380953
0.391511
0.392986
-0.276883
-0.338074
-0.0230848
-0.0634621
0.0825077
0.115403
0.0974704
0.611237
0.571314
0.62141
0.594892
0.556053
0.582639
-0.695573
-2.22208
-1.32634
0.246288
0.0551147
0.145162
-0.214782
-0.229942
-0.222249
0.662128
0.742696
0.357647
0.518067
0.53074
0.441508
0.472686
0.530334
0.454759
0.490493
0.525675
0.5051
0.22175
0.196273
0.190746
0.481755
0.537632
-0.163546
-0.215983
-0.264502
-0.166776
-0.112544
-0.132691
0.710519
0.598418
0.673879
0.219286
0.21997
-0.00950014
-0.0235685
0.224075
0.224142
-0.0101935
-0.0453511
0.126494
-1.15351
-0.175379
0.212458
0.202938
0.219636
-0.38448
0.0737636
-0.425377
-0.208453
-0.280263
0.210815
0.153413
0.117374
0.00203703
-0.18481
-0.122228
-0.508876
0.216939
0.215275
0.219132
0.220175
0.220807
-0.012487
-0.0225196
-0.00968934
-0.108377
-0.0538274
-0.0570152
0.184875
0.201197
-0.470093
0.21932
0.221412
0.221271
0.21432
0.220109
0.218237
-0.122333
-0.0760921
-0.159078
-0.0649678
0.0514996
0.377215
0.476803
0.339403
0.111219
-0.130522
0.275346
0.342038
0.242648
0.403877
0.390408
0.407069
-0.114237
-0.261067
-0.106667
-0.160934
0.210417
0.209039
0.201178
0.198371
0.214548
0.212583
0.217253
0.214094
0.217091
0.218487
-0.344347
-0.369322
-0.381751
-0.444591
0.0328481
0.290645
-0.0351123
0.00544126
-0.141499
-0.462483
-0.419659
-0.411968
-0.388466
-0.366196
-0.28088
-0.244582
-0.219447
-0.324224
-0.32147
-0.432787
-0.356673
-0.379084
0.204893
0.203852
0.209976
0.216922
0.162525
0.166114
0.133927
0.152615
0.137868
0.0839586
0.117064
0.0928506
-0.00451381
0.00169181
0.00458417
-0.195951
-0.301229
-0.0928946
-0.0403837
-0.0513284
-0.0453478
-0.0570759
-0.197941
-0.220678
-0.469787
-0.586731
0.667379
0.613878
-0.192745
0.206167
0.212568
0.209388
0.214069
0.21719
0.21808
0.215833
0.212444
0.201906
0.203768
0.199848
0.200263
-0.412154
-0.546612
-0.370815
-0.437336
-0.175901
0.32184
0.064356
0.00487611
0.000266488
0.215902
0.617724
0.418364
0.425836
0.450955
-0.653734
-0.253872
-0.585511
0.0353352
-0.142852
0.376689
0.42661
0.447933
0.395537
0.346546
-0.429595
0.228305
-0.356098
-0.312965
-0.123642
-0.225894
0.418049
0.374335
0.380026
0.394512
0.413831
0.378418
0.357197
0.354536
0.390452
0.395442
0.188792
-0.0328664
-0.0776861
-0.114794
0.355523
0.229774
0.285942
0.202275
0.205187
0.208088
0.206591
0.189613
0.196866
0.192692
0.197837
0.200956
0.210338
0.210746
0.206001
0.208457
-0.347716
-0.356067
-0.321561
-0.432121
-0.42481
-0.470623
-0.364059
-0.234885
-0.272981
-0.0750191
0.0356233
-0.259418
-0.371719
-0.340345
-0.312775
-0.130472
-0.106375
-0.20888
-0.118491
-0.119201
-0.138017
-0.0313911
-0.0284847
-0.426537
-0.364659
-0.354245
-0.412149
-0.260116
-0.184661
-0.181391
-0.482027
-0.518012
-0.421204
-0.374427
-0.306837
-0.323105
-0.337047
-0.275838
-0.17544
-0.186276
-0.257362
-0.457997
-0.347268
-0.380483
0.200117
0.201593
0.201702
0.212018
0.224125
0.239137
0.204847
0.182821
0.174389
0.177402
0.152664
0.16246
0.157299
0.170334
0.189668
0.196606
0.196166
0.198313
0.182545
0.184159
0.171834
0.17478
0.152561
0.135783
0.124894
-0.0916383
-0.0555172
-0.0847852
-0.0857053
-0.0224465
-0.0452034
-0.325101
-0.274268
-0.317891
-0.293657
-0.36525
-0.120458
-0.138658
-0.38328
-0.30786
-0.495638
-0.525875
-0.596283
0.577717
0.685189
0.505694
0.290524
0.294255
0.521486
0.61626
0.25591
0.427947
0.457957
0.233752
0.501741
0.211053
0.210566
0.20813
0.207599
0.209119
-0.328377
-0.228288
-0.210913
-0.163566
-0.0454933
0.0704585
-0.0232225
-0.1491
-0.00925319
0.00119775
0.316971
0.333555
0.277873
0.303072
0.301866
0.128874
0.204342
0.259424
0.214324
0.257852
0.279809
0.240777
0.270476
0.218771
0.176785
0.175616
0.121743
0.142476
0.120265
0.10216
0.200763
0.179711
0.18935
0.181072
0.200733
0.228557
0.223531
0.250007
0.262014
0.186112
0.148021
0.156815
0.183981
0.146372
0.159381
0.173942
-0.10508
-0.204911
-0.116605
-0.409087
-0.321348
-0.337211
-0.382841
-0.343196
-0.0563494
-0.758016
-0.728127
-1.36517
0.166131
0.644608
0.374938
0.347353
0.410866
0.388091
0.391537
0.418617
0.425088
0.344728
0.364173
0.366632
0.317425
0.344112
0.368675
0.366414
0.198323
0.0809467
0.0723405
0.0337069
-0.0882414
-0.0573608
0.145861
0.06819
-0.00427593
0.000383707
0.164155
0.0554805
0.120458
0.158347
0.091972
0.0485733
0.245471
0.313177
0.304645
0.27888
0.194036
0.205956
0.232496
0.268942
0.295273
0.330612
0.198046
0.203417
0.204656
0.202144
0.199652
0.20239
0.202355
0.204903
0.205836
0.208837
0.207755
-0.358513
-0.338222
-0.347743
-0.361033
-0.319823
-0.322134
-0.272091
-0.284356
-0.298202
-0.287546
-0.327007
-0.329305
-0.339189
-0.32646
-0.19686
-0.18696
-0.200431
-0.240644
-0.0593308
0.0764921
0.138833
0.0228752
-0.0824586
-0.0578747
-0.0306696
-0.288896
-0.280543
-0.303119
-0.233662
-0.242808
-0.476259
-0.470796
-0.470518
-0.541608
-0.480049
-0.411885
-0.275901
-0.325465
-0.354434
-0.347865
-0.305364
0.184559
0.178258
0.18046
0.174772
0.173437
0.186923
0.190914
0.192441
0.197029
0.198595
0.190556
0.194879
0.198128
-0.347249
-0.21792
-0.276894
-0.336186
-0.251673
-0.189369
-0.228002
-0.205953
-0.272889
-0.265559
-0.30998
-0.432907
-0.375335
0.150973
0.14368
0.161729
0.375965
0.230238
0.146912
0.236772
0.340061
-0.0616411
0.140637
-0.0290938
0.552573
0.440019
0.582583
0.212604
-0.08899
0.0627409
0.117435
-0.0806998
-0.01026
0.0119818
-0.0986766
-0.0688583
-0.0399112
0.0617253
-0.0610436
-0.0903405
-0.336492
-0.152633
-0.0225454
-0.0447627
0.0904848
0.155259
-0.0757884
-0.151867
-0.194604
0.307421
0.328101
0.346895
0.316596
0.34064
0.263317
0.253866
0.272667
0.282293
0.276218
-1.09334
-0.801987
-1.74373
-1.05163
-0.604533
0.201604
0.155908
0.443736
0.33098
0.405562
0.387879
0.345112
0.309225
0.319176
0.354436
0.056808
0.165735
0.139925
0.147037
0.0507912
-0.0165187
0.282366
0.275822
0.313597
0.338031
0.303583
0.33808
0.195783
0.195293
0.194996
0.191714
0.189872
0.192003
-0.231546
-0.256464
-0.226919
-0.245837
-0.261779
-0.275949
-0.45919
-0.441546
-0.416407
-0.383378
-0.41429
-0.433549
-0.170057
-0.226249
-0.294816
-0.269443
-0.323543
-0.389258
-0.405665
-0.308692
-0.221124
-0.228352
0.0743336
0.326634
0.151798
0.322192
0.159996
0.217455
0.159071
0.15502
0.187672
0.0527482
0.1276
-0.109553
-0.613181
-0.519926
0.456901
0.477666
0.267573
0.0755049
-0.152673
0.040401
0.227894
0.166395
0.207082
0.274621
0.268902
-0.323826
-0.251616
-0.00882331
0.218236
-0.09736
-0.104081
-0.108857
0.0567266
-0.0155345
)
;

boundaryField
{
    wall-4
    {
        type            zeroGradient;
    }
    velocity-inlet-5
    {
        type            zeroGradient;
    }
    velocity-inlet-6
    {
        type            zeroGradient;
    }
    pressure-outlet-7
    {
        type            fixedValue;
        value           uniform 0;
    }
    wall-8
    {
        type            zeroGradient;
    }
    frontAndBackPlanes
    {
        type            empty;
    }
}


// ************************************************************************* //
