/*--------------------------------*- C++ -*----------------------------------*\
| =========                 |                                                 |
| \\      /  F ield         | OpenFOAM: The Open Source CFD Toolbox           |
|  \\    /   O peration     | Version:  2412                                  |
|   \\  /    A nd           | Website:  www.openfoam.com                      |
|    \\/     M anipulation  |                                                 |
\*---------------------------------------------------------------------------*/
FoamFile
{
    version     2.0;
    format      ascii;
    arch        "LSB;label=32;scalar=64";
    class       surfaceScalarField;
    location    "26";
    object      phi;
}
// * * * * * * * * * * * * * * * * * * * * * * * * * * * * * * * * * * * * * //

dimensions      [0 3 -1 0 0 0 0];

oriented        oriented;

internalField   nonuniform List<scalar> 
1300
(
3.75095
5.62643
-5.67134
3.75095
-5.61194
5.62643
-4.48496
4.48496
-1.13305
1.13305
1.87647
1.87449
-2.94758
2.94758
-2.21922
2.21922
-2.56511
2.56511
-5.24639
5.24639
-5.06784
5.06784
4.67605
-4.67605
-4.17612
4.17612
-1.55061
1.55061
-3.92639
3.92639
3.1701
-3.1701
-3.65471
3.65471
-0.332803
0.332803
-0.553552
4.30451
3.1974
3.1974
-2.20318
2.20318
-4.85955
4.85955
6.21811
-6.21811
8.4577
-8.4577
-2.78636
-3.40476
1.46718
-8.86552
-4.14476
-4.14476
-8.44041
8.44041
-2.81398
2.81245
2.94221
-2.94221
-1.78237
1.78237
-4.41631
-0.068646
-4.41631
4.49208
-0.00712052
4.49208
-1.26611
0.133054
-1.26611
3.97892
-3.97892
0.961153
0.171902
0.961153
3.06446
-3.06446
-1.87716
3.75363
1.87379
-1.87181
6.17631
-1.87915
3.75363
-5.88866
5.88866
-3.20496
0.257383
-3.20496
2.74154
0.206037
2.74154
-6.56573
6.56573
-2.32055
0.101326
-2.32055
2.33671
-0.117489
2.33671
2.85086
-2.85086
-2.65816
0.0930481
-2.65816
2.48033
0.0847807
2.48033
0.353565
5.27287
-5.97999
8.79245
-5.27287
0.0264786
5.20843
0.0379518
5.20843
-5.10594
0.0380984
-5.10594
5.01191
0.0559338
5.01191
4.77078
-0.0947274
4.77078
-4.7884
0.112345
-4.7884
-3.07623
-4.01213
-4.2379
0.0617829
-4.2379
-1.55863
0.00802177
-1.55863
1.50552
0.0450906
1.50552
-3.52461
3.52461
-4.29267
0.366282
-4.29267
3.12479
0.0453066
3.12479
1.86852
1.88244
5.61947
-5.61947
2.44937
-3.22481
-0.429899
-3.22481
-4.04979
-4.40791
4.04979
-0.395087
-0.602033
0.26923
-0.602033
3.15915
0.0382475
3.15915
2.37874
0.101592
-2.37874
0.175558
3.25267
-3.25267
1.58288
0.620299
1.58288
-5.56912
5.56912
4.95205
0.0598567
-4.95205
0.092503
6.15662
0.061487
6.15662
-6.19958
-0.018527
-6.19958
2.87897
-6.28373
-3.71212
4.1538
0.0223149
-4.1538
0.00903819
2.91199
0.0302251
2.91199
-2.92316
2.92316
-2.98241
0.0401964
-2.98241
-2.19009
0.407724
-2.19009
1.47388
0.308493
1.47388
-4.28754
-0.128771
-4.28754
-4.4287
0.13603
4.4287
0.0633786
1.0161
-1.0161
-1.40509
0.138983
-1.40509
-4.12078
-0.166766
4.12078
-0.141854
-3.86783
-0.111091
-3.86783
-3.02312
0.0407166
3.02312
0.0413367
3.11239
0.0467658
-3.11239
0.0479274
-1.87083
3.75326
-1.88013
3.75392
-5.50871
-0.37995
-5.50871
6.1973
-0.308637
6.1973
3.56356
0.362826
-3.56356
0.3586
2.5681
0.173445
2.5681
-6.63454
0.0688102
-6.63454
6.28501
0.28072
6.28501
2.45387
0.114233
-2.45387
0.133318
2.52613
-0.189419
2.52613
2.8598
-0.00894375
2.8598
-2.85918
0.00831854
-2.85918
2.8048
-2.8048
2.73617
0.0686293
-2.73617
0.0780149
-11.1327
11.1141
-0.0349635
-11.0977
5.17347
5.17347
4.2031
0.567676
4.2031
-5.00149
0.213097
-5.00149
2.84978
-6.56189
3.92393
-7.00016
3.88998
-12.7555
3.29746
-7.30959
5.14585
-5.14585
4.56893
0.576918
-4.56893
0.33103
-1.5799
0.0212638
-1.5799
-2.91233
-0.612277
-2.91233
4.18765
-0.663044
4.18765
-3.02965
3.02965
-3.07837
0.0487146
3.07837
0.0464234
2.85541
-0.329278
-2.85541
-0.369397
0.779803
0.18135
-0.779803
0.17777
3.47204
-0.219368
3.47204
-3.04824
-0.204438
-3.04824
-1.58531
0.00541383
1.58531
-0.00243125
-5.81606
0.246945
-5.81606
-11.1908
0.0930583
-11.1528
-6.10652
-6.10652
2.33389
11.1263
-2.88372
0.0245469
2.88372
0.0282615
2.97736
0.0522966
-2.97736
0.0541996
-2.8659
0.0610945
2.8659
0.0572623
-2.57143
0.381336
-2.57143
-1.05339
1.05339
-1.24304
0.189649
1.24304
0.230834
1.25382
-0.237722
1.25382
1.46931
0.0362051
-1.46931
0.0642227
-3.76381
-0.10402
-3.76381
6.41629
-0.218987
6.41629
-2.92285
-0.125388
2.92285
-0.0630468
-0.0333335
11.1475
-5.14014
0.0341966
5.14014
-11.209
11.2432
-3.24789
0.676457
3.24789
0.955216
5.29136
0.277754
-5.29136
0.289871
5.77536
0.509654
-5.77536
0.629509
-2.41901
-0.493327
-2.41901
-4.92302
-0.58569
4.92302
-0.735367
-11.4749
-0.202816
11.6777
-11.419
6.01888
0.137741
-6.01888
11.3809
-0.961435
-0.0546676
0.961435
0.0919583
1.565
-0.311178
1.565
3.6614
-0.189359
-3.6614
-0.102411
-6.54823
-0.0863151
6.54823
-0.13194
-1.97472
-0.444291
1.97472
-0.409714
-4.26675
4.305
1.90956
-2.48078
-3.80296
-6.88868
1.85177
1.90149
4.30115
-8.07225
-4.68325
-8.06321
7.26868
-6.97881
-9.28564
9.19091
7.56524
-7.67633
-5.78477
5.8312
6.48191
-6.44057
1.8791
1.87453
7.93568
-7.6783
-15.6471
15.2671
6.21879
-6.11746
15.8586
-15.7898
-18.0152
18.5249
-5.74241
5.83546
-6.68676
6.69508
-6.87045
6.8074
-2.28453
-4.71563
11.6425
-11.5807
8.64544
-9.07534
-8.50659
8.87287
3.38253
0.922471
3.42929
-1.88235
3.76144
-1.87129
3.78085
4.02692
-6.31145
2.53497
-6.33793
5.0437
3.60174
-4.64861
-2.24008
-5.9188
5.94903
-5.82169
5.87895
8.89837
-8.96701
-1.88509
3.75962
-1.86883
3.77032
-3.42529
-2.35948
3.37999
0.92116
6.80114
4.84134
-6.82346
-1.23976
-7.78162
7.59226
-8.06291
7.85848
-0.445202
5.8212
-5.376
4.41435
-1.55623
7.37743
5.71245
5.92555
5.86744
-5.58968
1.11137
-6.48737
-6.39487
-2.54573
2.68471
2.51697
-2.34507
5.93154
1.6337
5.78968
-5.54276
-2.13357
-5.64678
3.82122
2.00998
3.86993
4.07555
2.40636
4.11627
3.03132
-3.03505
0.00372566
-3.05657
6.08789
0.724574
-5.41605
-4.49489
4.94119
2.99449
5.14722
-5.50421
-2.17408
-5.14561
-9.52028
-6.12682
-10.106
10.0965
5.17061
9.78789
-11.9452
11.8133
3.66811
2.55068
3.55062
-4.31061
-1.80685
-4.17729
12.7268
-3.43425
-9.29253
-10.5102
-7.50503
10.2295
5.62913
10.7589
7.76595
11.3884
4.81964
7.90714
-10.4488
2.94374
-3.87424
-1.86818
-3.79622
3.71933
2.11614
3.80411
-4.2044
-2.48236
-4.17985
-4.25126
-2.61919
4.26021
2.43488
-4.3277
-3.73522
4.45309
2.35432
3.93261
-8.61586
3.37698
-8.09261
-8.70901
-2.87169
-8.37798
5.24798
1.3147
-6.56268
-1.06347
9.64147
-6.03973
7.4014
-4.54229
-4.53305
-4.91169
-6.79926
-1.70732
-6.66323
-8.85178
8.35845
-9.16538
8.50234
12.7305
-5.70637
-7.02416
-3.96826
-2.47231
3.92033
-0.49104
-3.71228
3.716
0.0491656
3.83001
4.75248
4.26144
-3.8865
-1.93518
-3.8323
3.83335
2.0456
3.89445
6.73011
2.16826
6.72299
-6.41636
-2.55065
-6.54513
9.10507
-8.69734
2.9531
-2.94768
5.25338
2.6051
-5.03401
-2.74761
6.11624
-3.06701
-3.04923
-12.2135
10.571
1.6425
-4.83606
-0.421711
-0.0889088
-5.5041
-3.78153
5.39176
0.533789
11.1048
7.32324
-5.51408
5.76103
6.16367
6.22352
-0.171341
5.85503
-5.17857
5.36382
-2.47926
-2.88455
5.28399
-5.45076
-1.26114
-5.28703
4.02589
0.338929
1.76529
-1.49606
-2.02642
-0.519309
-1.9622
1.49184
1.02513
1.67319
0.993379
1.69134
-2.92609
0.520683
2.4054
-1.93271
-1.82439
-3.67967
-1.02093
4.7006
5.53577
2.05649
-5.43336
-0.213419
2.74293
-2.69784
-0.810463
-2.86921
2.09207
-2.90253
-3.53984
-1.90703
5.44686
-3.37059
-0.461714
3.31829
0.551641
-3.82499
-2.09382
3.78479
0.331478
-3.12449
6.18897
-3.06448
-5.05968
2.52938
3.55851
4.53936
-4.7903
2.44626
2.34404
-1.23179
4.15081
0.996409
4.32426
-6.72448
4.5504
5.72911
3.14376
-6.09194
0.946326
-5.77816
8.49404
-7.30553
-1.18851
4.11222
4.38182
7.18775
5.54279
-5.74744
12.9352
-1.15746
-6.14807
6.93561
-3.79186
4.75426
-8.54612
-10.2971
4.14898
-9.20281
10.9503
-1.74747
-3.5998
-8.34539
12.8026
-1.22352
-11.5791
8.56438
-4.0823
-4.84193
8.92423
-7.51655
6.64878
-1.43181
-5.21697
-10.1229
-5.66688
10.2092
1.60403
-11.2839
14.2277
-3.3768
3.19326
0.357362
3.00384
3.28457
-5.68968
2.40511
4.23198
-5.66379
1.84467
-7.53435
-7.21023
11.7922
-4.58197
-10.0819
-10.2848
0.202878
2.08406
12.1436
-9.85001
6.69743
3.15258
3.31062
0.583825
-3.37925
-0.416971
0.30811
4.55011
-4.85822
4.11222
4.21381
3.42014
1.12997
3.8372
2.11183
-3.86546
-0.314388
-4.13297
1.51378
-1.69809
-3.65217
5.16595
-4.08827
0.436097
-2.73158
-3.54317
6.27476
-4.59976
3.03998
3.14899
5.08558
-4.9205
1.37733
-2.42154
-2.49896
2.71094
-4.40903
1.95659
3.20936
4.31091
0.57569
6.61206
5.18014
-7.92676
-0.165853
10.0215
-8.78172
3.22391
8.16452
-9.92133
-0.363462
-8.74144
-0.197031
-5.8427
-6.75971
5.05764
-6.76496
-3.48848
6.14501
0.577977
-6.20839
-0.454847
-6.00332
-2.84847
-6.44761
-3.06328
-6.1021
-8.81073
-1.64408
-7.16665
6.71437
-6.64889
-3.45708
7.38426
1.11808
-7.3913
7.33663
-7.46864
7.15746
0.0944806
3.62152
4.35592
1.88361
-2.38973
4.27335
-5.06782
7.23608
-8.47474
3.40692
3.96454
-6.51519
-4.5102
5.04764
4.05743
5.35613
8.97868
-10.5363
1.55765
-10.8626
12.1722
-1.30957
-16.6538
5.79114
-7.67508
2.68968
0.263411
2.71095
0.673734
2.41268
-3.08642
-2.27395
-2.27638
-2.30676
-3.37031
5.67707
1.13737
-3.36433
2.22696
-3.46797
4.60534
-0.0685444
-3.29579
5.24812
-2.83544
5.51153
-3.53651
1.97502
3.2808
5.60255
-2.32175
4.30178
-1.69668
1.81614
-4.13789
-1.55417
-3.00358
5.11972
-3.27118
3.70728
-0.261496
3.96877
-4.05399
0.986979
-0.63385
3.57996
3.75552
4.25484
-3.12486
2.93228
-4.62896
-1.20561
-4.05327
-0.843907
-0.314635
-3.77649
4.09112
6.07544
-6.39007
-5.28051
9.60128
-4.32077
7.74149
-5.41798
-2.32351
-4.28847
-4.40888
3.90713
1.9479
9.68938
0.211555
-5.62953
-4.96701
-4.0118
3.22381
2.14001
-1.98358
3.62608
2.07249
-0.307199
0.576334
1.09686
1.86213
-1.2858
0.221431
1.6407
-1.27463
2.01003
0.732904
-2.04623
0.0840304
-1.39589
3.48797
1.00951
-2.03464
0.748841
1.00835
-3.48761
4.78659
-2.47287
-2.31372
5.79494
1.15416
-3.62702
4.13287
-3.79394
2.31723
-3.33815
-1.3098
-5.10374
-3.47003
-2.48445
4.71141
-3.19262
5.24911
1.17157
-5.03569
6.20726
-3.55853
1.6515
-3.04296
3.77586
-1.04681
-1.99615
2.75882
2.68805
-2.91566
0.0464581
-0.156845
2.29896
-2.45581
-0.603575
-2.53628
-4.5732
4.90468
-2.1065
4.55276
2.16684
-1.91365
6.46642
1.8116
-3.72525
-3.24808
-3.70979
-1.38121
3.15815
-0.179352
-3.99794
-5.39633
3.88371
0.440548
-6.97531
7.77849
-0.803181
-3.98081
-0.569586
4.6818
-5.86518
0.201396
-4.02051
3.75797
4.75438
5.19493
-11.4381
-0.140956
-6.26752
1.16232
-7.42985
5.54415
-3.63098
7.77996
-10.4223
6.96521
-9.30421
6.59145
-0.838398
6.48862
-4.08351
2.80391
-8.47079
-6.86676
5.08206
-2.53138
5.43942
-3.01605
8.45548
-6.39285
5.0364
3.41908
-1.65957
-3.25211
-4.45885
2.79928
0.577552
3.58139
4.97415
-2.86233
4.65977
2.23163
-4.65316
-2.1774
-6.49946
1.84629
-3.35047
-1.91098
3.75727
3.1746
3.75843
1.2583
-3.34146
9.06119
-8.85831
-4.47922
-2.28049
5.15672
-2.35745
5.21903
-7.49952
-0.623671
4.89764
-0.854467
-4.04318
0.80873
-4.29721
1.65217
-5.94938
5.1128
-5.56764
2.19169
-9.86677
-5.19961
-5.10765
-2.23686
-5.23178
-7.65827
5.42141
-1.86713
5.4695
-8.675
7.82053
-3.49719
8.9186
-5.41172
-1.03588
5.82144
1.33603
10.2546
0.130036
-4.64024
-1.8892
4.00256
-2.11336
1.33461
-3.64645
0.356104
2.41577
3.37917
-6.44166
-0.0735387
-4.71378
-3.92607
7.9835
5.67521
11.7506
1.21431
9.19185
-1.20835
10.4062
4.14778
4.37861
-3.02837
4.58603
1.06275
4.46967
-0.846964
2.82198
1.86398
1.87201
0.825833
2.29633
1.45919
3.28331
0.196893
-2.07949
4.64705
-8.65885
-0.982476
-8.09118
1.09973
5.73309
-4.63336
3.18336
-1.04335
1.07
0.0758644
-1.66089
1.58502
-2.80869
-1.96808
-0.327381
-1.60604
2.35489
1.88192
-2.0275
-0.781184
0.318453
-3.78849
3.0197
-2.97324
-0.285197
5.92206
-2.71935
0.263542
-1.06784
-2.27274
-2.79205
2.70802
6.17475
0.291669
3.11027
5.19635
3.10253
0.2402
3.96241
-5.70988
-3.57194
-5.85083
-0.306683
4.37512
2.87605
9.26757
6.29513
3.93768
-3.56184
-12.4201
6.56026
-1.97423
5.25069
-1.20752
-4.74186
4.97219
2.26389
-5.55017
-0.017477
-4.75934
-6.73357
-0.550083
8.37062
-9.70454
8.66866
5.82019
1.34645
-4.40563
-0.702021
4.21598
0.162634
10.5688
-1.12197
-6.85764
7.97962
-4.61112
3.62864
0.858929
2.76716
2.44395
1.4006
-5.45704
-10.0904
-1.92638
-1.56124
-4.2401
0.460498
-2.34242
6.27169
-2.64305
3.94817
5.33657
6.40657
-2.17272
-4.21735
6.4935
-2.54533
3.86124
)
;

boundaryField
{
    wall-4
    {
        type            calculated;
        value           uniform 0;
    }
    velocity-inlet-5
    {
        type            calculated;
        value           uniform -3.75095;
    }
    velocity-inlet-6
    {
        type            calculated;
        value           uniform -5.62643;
    }
    pressure-outlet-7
    {
        type            calculated;
        value           nonuniform List<scalar> 8(5.67134 5.61194 6.19113 7.39834 7.08837 6.59109 6.77371 7.18744);
    }
    wall-8
    {
        type            calculated;
        value           uniform 0;
    }
    frontAndBackPlanes
    {
        type            empty;
    }
}


// ************************************************************************* //
