/*--------------------------------*- C++ -*----------------------------------*\
| =========                 |                                                 |
| \\      /  F ield         | OpenFOAM: The Open Source CFD Toolbox           |
|  \\    /   O peration     | Version:  2412                                  |
|   \\  /    A nd           | Website:  www.openfoam.com                      |
|    \\/     M anipulation  |                                                 |
\*---------------------------------------------------------------------------*/
FoamFile
{
    version     2.0;
    format      ascii;
    arch        "LSB;label=32;scalar=64";
    class       volVectorField;
    location    "26";
    object      U;
}
// * * * * * * * * * * * * * * * * * * * * * * * * * * * * * * * * * * * * * //

dimensions      [0 1 -1 0 0 0 0];

internalField   nonuniform List<vector> 
918
(
(0.985166 -0.000502088 0)
(0.0050048 2.96626 0)
(-0.0252188 1.50055 0)
(0.979702 0.00214867 0)
(0.00329907 1.48329 4.99765e-20)
(-0.0070366 2.94878 -1.86438e-18)
(0.843729 1.18398 7.20835e-19)
(0.378175 0.171601 -9.20644e-21)
(0.999906 -0.000290147 0)
(0.0515453 0.850671 0)
(-0.0207956 0.624051 0)
(0.733342 -0.00916279 0)
(0.0111332 2.93031 0)
(0.00231515 2.79469 0)
(-0.0174101 3.16229 1.07119e-18)
(0.0295638 1.25102 1.9445e-19)
(0.478103 0.0710083 5.76527e-19)
(0.190379 1.21687 6.23801e-19)
(0.962873 0.00498774 0)
(-0.0328179 1.04719 0)
(0.105099 0.215046 -4.64013e-19)
(1.00201 -0.00498418 0)
(1.00021 -0.00980282 0)
(0.975709 -0.00644962 0)
(0.628303 -0.0433905 0)
(0.0165733 2.63583 0)
(-0.0149673 2.91009 6.43649e-19)
(-0.0517571 1.48549 0)
(-0.060796 1.64457 0)
(-0.035005 1.49044 0)
(-0.00625686 1.9854 0)
(0.0359237 1.52227 -3.95033e-20)
(0.0261148 1.31118 0)
(-0.0206154 2.98759 -6.51859e-23)
(-0.016698 3.0053 1.44911e-18)
(0.00210722 3.0002 0)
(0.869972 -0.00944795 0)
(0.401976 0.940068 -2.46084e-20)
(0.820162 1.20324 -1.00849e-18)
(0.969321 1.03745 9.47417e-19)
(0.688456 1.29963 -1.672e-19)
(0.687521 1.28973 9.3576e-19)
(0.418544 0.265697 8.98228e-21)
(0.409611 0.155441 0)
(1.15711 0.559562 0)
(0.379834 0.270426 4.16334e-20)
(0.330524 0.172463 -4.32077e-20)
(0.919608 -0.00751974 0)
(1.00029 0.000154713 0)
(0.999911 0.000347005 0)
(1.00364 -0.00779326 0)
(1.00096 -0.000959574 0)
(1.00017 1.82566e-05 0)
(0.0763728 1.77755 -2.22754e-19)
(0.0430765 0.992329 0)
(0.0961759 0.9351 0)
(0.0211191 0.934617 0)
(0.0415145 0.784086 0)
(-0.041195 1.95226 0)
(0.0191005 0.758614 0)
(0.0103281 0.643243 0)
(-0.0212944 0.751623 0)
(-0.029597 0.669435 0)
(0.831162 -0.0135481 0)
(0.853087 0.0238037 0)
(0.76613 0.00206348 0)
(0.830576 0.0272465 0)
(0.711678 -0.0172878 0)
(0.0147001 3.0004 6.82444e-19)
(0.0115247 3.00795 0)
(0.00612937 3.00283 0)
(0.0135548 2.99735 7.60834e-24)
(0.00798589 2.95845 -1.01428e-18)
(0.0144815 2.98202 0)
(0.0108042 2.90364 0)
(0.0250592 2.93021 1.35935e-24)
(0.00425969 2.82508 0)
(0.0315804 2.91571 0)
(-0.00613486 2.74528 0)
(0.311162 3.56244 0)
(-0.132141 3.64455 0)
(0.141145 3.25311 9.96887e-19)
(-0.0118419 2.98606 0)
(-0.117829 1.89276 0)
(0.0687431 1.44104 -1.91825e-19)
(-0.0140425 1.24487 2.33759e-19)
(0.549736 0.155448 -1.9863e-19)
(0.479332 0.0402436 -1.92103e-19)
(0.52868 0.180476 -5.99377e-19)
(0.463048 0.0923364 -4.02308e-19)
(0.217016 0.908227 0)
(0.269932 1.35814 -6.52586e-19)
(0.387995 1.30735 1.07183e-18)
(0.987615 0.00855992 0)
(0.942171 0.00591388 0)
(1.0003 0.000576855 0)
(1.00287 0.00930486 0)
(1.00301 0.00842868 -1.14021e-18)
(0.991925 0.00971088 8.60912e-19)
(-0.0608748 1.13135 0)
(-0.047737 0.934226 0)
(-0.0762618 1.45734 0)
(-0.0471444 1.26254 0)
(-0.0196733 1.17401 0)
(0.157242 0.223611 1.43172e-19)
(0.207489 0.200532 0)
(0.993513 -0.00839413 0)
(0.954357 -0.00647321 0)
(0.793754 0.0302215 0)
(0.755587 0.040296 0)
(0.682931 -0.0330244 0)
(0.965683 -0.00356099 0)
(0.691872 0.0580177 0)
(0.531144 -0.0201746 7.69196e-19)
(-0.0359559 2.86529 3.30955e-19)
(0.0425645 2.90908 0)
(0.0556331 2.88396 0)
(-0.00473623 2.69811 0)
(-0.0132081 2.98512 5.91412e-19)
(-0.018161 2.89522 0)
(-0.0154402 2.9881 -1.87158e-18)
(-0.0133493 2.9252 6.46626e-19)
(-0.110536 1.70175 0)
(-0.108552 1.75425 0)
(0.0687208 1.45417 5.03905e-21)
(0.0553682 1.45342 0)
(0.0138379 1.27657 0)
(0.937347 -0.0076455 0)
(0.855256 -0.00929436 0)
(0.864491 0.00731015 0)
(0.948719 -0.00786433 0)
(0.883292 -0.00852477 0)
(0.515323 1.13519 2.01514e-20)
(0.566226 1.18799 0)
(0.363688 0.881775 5.38869e-21)
(0.306247 0.742145 0)
(0.929266 1.07639 -2.73978e-19)
(1.04284 0.877105 5.60777e-19)
(0.381874 1.39725 0)
(0.542535 1.36688 0)
(0.546251 1.32777 0)
(0.102565 0.167742 -1.39031e-19)
(0.461748 0.251098 0)
(0.445106 0.144629 1.15493e-19)
(1.01302 0.931011 0)
(1.08102 0.777612 0)
(1.10618 0.719782 -4.90704e-19)
(1.13718 0.618812 0)
(1.18717 0.403857 5.75227e-20)
(0.957275 -0.00863543 0)
(0.962224 -0.0100817 0)
(0.901303 -0.00813991 0)
(0.984114 -0.00917688 0)
(0.97456 -0.00940008 0)
(0.936989 -0.00628165 0)
(1.00018 0.00232952 0)
(1.00089 0.00142621 0)
(0.999907 0.000851347 0)
(0.0348444 2.04079 1.45582e-19)
(0.122139 1.71687 0)
(0.0226397 2.15198 3.83189e-20)
(0.0508478 1.85068 -3.86548e-20)
(0.137213 1.20742 -5.16652e-19)
(0.0458167 1.08027 0)
(0.0950425 1.0784 0)
(0.0162844 0.871093 0)
(-0.0075945 0.724716 0)
(-0.0425574 2.16423 2.82665e-21)
(-0.0126704 1.96871 0)
(-0.0751477 2.09063 1.81041e-19)
(-0.0631284 1.86748 -1.29134e-21)
(0.000465005 0.844301 0)
(0.0202289 0.807735 0)
(-0.0003387 0.68325 0)
(-0.0398668 0.795007 0)
(-0.0366377 0.729446 0)
(0.927098 0.00839523 0)
(0.838788 -0.0107087 0)
(0.921167 -0.000655761 0)
(0.837441 -0.0114462 0)
(0.813887 0.0052765 0)
(0.904149 0.0177397 0)
(0.882289 0.020444 0)
(0.789799 0.00317776 0)
(0.00576479 3.06481 -5.99396e-21)
(0.016431 3.05789 0)
(0.0146229 2.96912 0)
(0.0085576 2.87637 0)
(0.929838 3.98246 0)
(1.24563 3.31402 1.01105e-18)
(0.0708713 3.07831 0)
(-0.0274969 2.90814 0)
(-0.16174 1.74748 0)
(-0.164622 1.86399 0)
(-0.132259 1.80549 0)
(-0.0365744 1.99092 -3.11914e-21)
(-0.131524 1.94024 0)
(-0.0804333 1.92228 0)
(-0.0804953 1.5256 1.37853e-20)
(-0.0550162 1.61386 -2.2302e-19)
(0.0151341 1.4861 -2.39229e-19)
(-0.0640615 1.33428 0)
(0.578328 0.124569 2.9095e-19)
(0.495527 0.0151396 -2.84376e-19)
(0.259758 1.54089 0)
(0.262407 0.68272 -2.11332e-19)
(0.178387 1.63071 -7.08974e-19)
(0.226216 1.15985 7.10751e-19)
(0.902648 0.00667006 0)
(0.967628 0.0109543 0)
(0.974774 0.010786 0)
(0.923676 0.00670054 0)
(-0.0548967 0.874712 0)
(-0.0541765 0.991608 0)
(-0.0573488 0.826402 0)
(0.324348 0.262027 3.80353e-19)
(0.266928 0.238733 -4.58011e-19)
(0.276697 0.185418 0)
(1.09342 0.0866886 -3.06322e-21)
(1.07724 0.0403982 0)
(1.00508 0.0413786 0)
(0.90065 0.00239043 0)
(0.601576 0.0957474 0)
(0.631927 0.0700534 -1.23805e-18)
(0.510819 0.000335701 4.72508e-19)
(0.00940545 2.98158 4.19216e-19)
(-0.0326462 2.86664 4.70784e-20)
(0.00373488 3.05025 -1.29567e-20)
(0.0200242 3.04342 4.65528e-19)
(-0.014985 2.99655 2.15071e-20)
(-0.0129876 2.94943 -8.70309e-23)
(-0.0172941 3.01198 -4.07822e-19)
(0.0148577 3.0239 2.95299e-19)
(0.00735881 3.03687 -4.61222e-19)
(0.93046 -0.000951809 0)
(0.937355 -0.00373869 0)
(0.843521 -0.00810442 0)
(0.956964 0.0114345 0)
(0.943574 0.0124151 0)
(0.882543 0.00638522 0)
(0.919667 0.0153714 0)
(0.927627 0.0143265 0)
(0.840277 0.00613987 0)
(0.721746 1.41677 3.18798e-19)
(0.756189 1.52674 0)
(0.208936 0.355176 2.71047e-20)
(0.18468 0.628864 2.24926e-19)
(0.255707 0.706775 -1.29267e-19)
(0.271506 0.561725 2.42856e-19)
(0.308232 0.729984 7.84938e-19)
(0.115063 0.197549 2.20906e-19)
(0.508439 0.20094 -4.16372e-19)
(0.491004 0.22521 1.0911e-19)
(0.458085 0.120492 2.17662e-19)
(1.17543 0.460634 2.91171e-19)
(1.18882 0.255871 3.02308e-19)
(0.00338926 2.16343 1.87494e-21)
(0.0523114 1.91385 0)
(0.958179 0.0315649 0)
(0.928867 0.0166234 0)
(0.85839 -0.00851069 0)
(0.011276 3.0747 0)
(0.0200175 2.94421 7.9848e-19)
(0.016473 2.95652 0)
(0.00611432 2.85065 -7.92135e-19)
(0.00619207 3.09174 1.89237e-19)
(0.00705843 3.08213 0)
(0.789877 1.83076 -2.37114e-19)
(1.25326 2.51151 6.52378e-19)
(0.772352 1.97109 -1.48519e-18)
(0.0206469 2.98338 -3.07072e-19)
(0.0363288 3.00441 0)
(-0.0331326 2.88054 0)
(-0.119493 1.96588 -8.7465e-21)
(-0.104138 1.78527 -1.09176e-20)
(-0.101194 1.71883 -6.61122e-21)
(0.274536 1.34887 6.90506e-19)
(0.212113 0.460428 -4.75923e-19)
(0.0624725 1.96252 4.61507e-19)
(0.137775 1.85098 -5.80592e-19)
(0.178447 1.45552 8.60237e-20)
(0.0049269 3.11881 -9.92397e-19)
(0.0110744 3.11924 1.08286e-18)
(-0.00892478 2.98087 5.13773e-19)
(-0.00409742 2.9776 -4.53974e-19)
(-0.0214741 2.88118 -5.2327e-19)
(0.00848254 3.09983 -1.38489e-18)
(0.00196339 3.10493 1.38786e-18)
(0.24792 0.644406 0)
(0.206207 0.63361 -4.39788e-19)
(0.105025 0.213792 1.99038e-19)
(0.330366 0.851106 6.63836e-19)
(0.174727 0.237897 -1.01661e-18)
(1.18024 0.17341 -5.47483e-20)
(1.18881 0.309105 0)
(1.16875 0.121141 1.17372e-19)
(-0.0031538 2.19473 2.40791e-21)
(-0.000936204 2.18697 0)
(0.0294937 1.95097 0)
(0.337591 1.24621 -2.50388e-19)
(0.355143 1.064 -5.33323e-19)
(0.1859 0.331996 9.19188e-19)
(1.00583 -0.01092 0)
(1.00764 -0.00767208 2.08093e-19)
(-0.13875 1.64499 0)
(-0.143698 1.61948 0)
(1.00222 0.00353975 1.83627e-21)
(1.00369 0.00942635 4.28215e-19)
(-0.0313911 2.01465 3.99234e-21)
(-0.0120554 2.04375 0)
(0.0373026 3.1809 1.1929e-19)
(0.399187 3.49756 0)
(1.12664 0.645485 6.27062e-20)
(1.01297 0.0130887 -2.0829e-21)
(1.02111 -0.0105651 0)
(1.00173 0.000137868 1.00508e-22)
(0.104569 1.35644 0)
(0.14381 2.57604 0)
(0.0455695 1.08742 0)
(-0.0117432 2.62695 -2.12082e-19)
(-0.142706 2.62769 -2.32883e-19)
(1.00711 0.0283536 2.65697e-21)
(1.05721 -0.00404879 0)
(1.08094 0.0204804 0)
(-0.184258 1.86604 0)
(-0.104228 2.28117 0)
(-0.236108 1.34259 0)
(0.275604 1.46625 -4.29988e-19)
(1.01124 -0.00972004 0)
(1.00934 -0.0149885 0)
(1.00251 0.00070252 2.65621e-19)
(1.00548 -0.00489873 -3.12475e-19)
(1.0012 -0.00103953 0)
(-0.243727 1.78948 0)
(-0.187477 1.65527 0)
(-0.19574 1.74337 0)
(-0.221017 1.36541 0)
(-0.190266 1.50875 0)
(-0.167095 1.43527 0)
(1.03444 -0.00707847 0)
(1.02074 0.0153165 -1.06383e-21)
(0.784101 1.25654 5.12659e-19)
(1.0022 0.000374314 -2.63334e-19)
(1.00411 0.0052731 3.12157e-19)
(1.00116 0.00205028 0)
(1.01292 0.0102434 2.58744e-19)
(1.00796 0.00820294 -3.20721e-19)
(1.00871 0.0145378 0)
(-0.0828428 2.26837 0)
(-0.0372029 2.13907 -1.1952e-19)
(-0.0268687 2.15775 1.01063e-19)
(1.1982 0.260063 -5.73113e-20)
(1.13581 0.0893532 0)
(0.0476385 3.07742 -5.16602e-19)
(0.0667865 2.85219 -4.09976e-20)
(0.144776 3.19504 8.2937e-19)
(0.139304 3.22421 -5.19393e-21)
(0.137653 3.23806 0)
(0.0203646 3.13809 1.13253e-19)
(0.0783263 3.16107 5.03425e-19)
(0.070859 3.18789 -2.18499e-19)
(0.0238969 3.12887 0)
(0.658471 0.321343 0)
(0.577706 0.371912 0)
(1.09781 0.674756 -2.42165e-19)
(1.09549 0.807862 -8.937e-20)
(1.15621 0.565919 0)
(1.18627 0.512047 0)
(1.01616 0.0132653 -4.78751e-19)
(1.01498 0.014147 -1.57615e-21)
(1.02505 -0.0104392 0)
(1.02299 -0.0124607 0)
(1.00662 0.00239134 0)
(1.01057 0.0036121 0)
(1.00438 0.00181097 0)
(1.00981 0.00621428 0)
(1.00787 0.00579771 0)
(1.00449 0.0045136 0)
(0.0941554 1.35752 0)
(0.0879527 1.316 0)
(0.119463 1.38319 0)
(0.138267 1.4072 0)
(0.146429 2.5975 0)
(0.189224 2.65608 -2.06861e-19)
(0.099128 2.65466 0)
(0.0794164 2.65715 -1.15673e-20)
(0.0272734 2.6807 2.08026e-19)
(0.0299581 1.04504 0)
(-0.0351527 0.94381 0)
(0.126099 1.12722 0)
(0.0489565 1.07518 0)
(0.0440374 2.09485 3.43216e-19)
(-0.129052 2.64772 -2.94554e-19)
(-0.0317242 2.68026 -3.56721e-19)
(-0.0924676 2.67554 0)
(-0.187933 2.65791 6.22278e-19)
(-0.211142 2.61989 3.79535e-19)
(0.0774356 2.17234 -2.25165e-19)
(-0.0940306 2.55882 4.16731e-19)
(-0.00895837 2.53493 4.29112e-19)
(1.01562 0.0349526 4.77522e-19)
(1.00858 0.0205291 2.34875e-21)
(1.00745 0.0387456 -4.85843e-19)
(0.989481 0.0180821 6.28573e-19)
(1.05786 0.00182699 0)
(1.04516 -0.0121826 0)
(1.08011 0.02662 0)
(1.06409 0.00477069 0)
(1.06025 -0.00414768 0)
(1.11981 0.0795303 0)
(1.09245 0.0436063 0)
(1.094 0.0365233 0)
(-0.125363 2.03074 2.24192e-21)
(-0.213781 1.96654 0)
(-0.151717 1.96308 0)
(-0.16718 2.41226 -1.20924e-19)
(-0.154863 2.41713 6.60627e-21)
(-0.351149 1.87656 -7.68841e-20)
(-0.26883 1.79961 7.96048e-20)
(-0.302859 1.5815 0)
(-0.283394 1.61679 0)
(-0.246809 1.64419 0)
(-0.250742 1.29131 0)
(-0.14944 1.12441 0)
(0.37164 1.47776 8.17259e-19)
(0.404815 1.49053 3.24378e-19)
(0.591305 2.43979 -1.57402e-19)
(0.40715 2.5332 4.31094e-19)
(0.352783 2.08531 -4.4924e-20)
(1.02097 -0.00855293 0)
(1.01546 -0.0099453 0)
(1.01479 -0.0156314 0)
(1.0078 -0.00146473 0)
(1.00494 -0.00115465 0)
(1.00772 -0.00491069 0)
(1.00922 -0.00376 0)
(1.01405 -0.00452953 0)
(1.02151 0.0157281 4.56533e-19)
(1.01801 0.0157424 -5.88652e-19)
(1.02212 0.0175414 -4.57137e-19)
(1.01942 0.0163193 5.72268e-19)
(0.752885 1.30736 0)
(0.687565 1.36113 6.00531e-19)
(0.862621 1.19934 3.51421e-19)
(0.907919 1.15596 -4.67477e-19)
(1.1586 2.61728 -5.16588e-19)
(0.831675 0.0985811 3.01876e-19)
(1.13638 0.10352 0)
(1.17984 0.184641 5.02813e-20)
(1.16481 0.158029 2.25141e-21)
(0.99535 0.127306 0)
(0.141018 2.96396 1.53499e-19)
(0.119453 2.86968 -6.74574e-19)
(0.0307355 2.36568 4.79236e-19)
(0.0958117 0.0461149 -2.01464e-19)
(0.344106 3.42624 -4.31233e-19)
(0.197588 3.31747 0)
(0.239871 3.36051 5.61602e-19)
(0.250867 3.03696 -8.06206e-19)
(0.344928 3.19632 0)
(0.00775758 3.12052 2.64835e-20)
(0.0183641 3.12944 -3.34351e-19)
(0.0163809 3.12545 4.92123e-19)
(0.036886 3.13959 0)
(0.0351378 3.15123 0)
(1.22062 2.61789 0)
(0.548648 0.841851 -2.51948e-19)
(1.02643 0.983713 -1.98166e-19)
(0.964421 1.05225 0)
(0.809568 0.953216 4.95543e-20)
(1.04911 0.865827 3.01777e-20)
(0.383665 0.422559 -5.37597e-19)
(0.700155 0.332347 -2.34116e-20)
(0.688258 0.257484 2.35505e-19)
(0.591397 0.402808 1.81163e-20)
(0.516239 0.380611 -7.39577e-19)
(0.669367 0.357004 0)
(0.691097 0.433156 3.87391e-19)
(0.69619 0.431843 0)
(0.628393 0.389272 0)
(0.61334 0.322539 0)
(0.777967 0.608522 1.42052e-19)
(1.19548 0.278244 -5.53695e-20)
(1.19073 0.414448 0)
(1.20419 0.362424 0)
(0.770243 0.204249 3.45714e-19)
(0.823919 0.542784 -1.9377e-19)
(0.731418 0.515345 -3.168e-19)
(0.918935 0.418289 -2.99409e-19)
(1.01996 0.0144442 3.16477e-19)
(1.01796 0.0140533 -3.22096e-19)
(1.01599 0.0154631 0)
(1.03546 -0.00655343 0)
(1.02932 -0.00884574 -2.90576e-19)
(1.02706 -0.0128893 2.87526e-19)
(1.02526 0.0094876 0)
(1.02394 0.0129358 0)
(1.01146 0.00393324 0)
(1.01437 0.00869687 0)
(1.01522 0.00346773 0)
(1.01408 0.00270337 0)
(0.0687857 1.34345 0)
(0.0712829 1.26586 0)
(0.149107 1.3375 3.25951e-19)
(0.25806 1.46424 2.45014e-19)
(0.156657 1.43693 5.20285e-19)
(0.18461 1.44495 -2.79749e-19)
(0.180427 1.37238 0)
(0.130541 1.60467 2.70988e-19)
(0.109432 1.56783 0)
(0.352437 2.04124 6.52737e-20)
(0.351475 2.36961 2.41326e-19)
(0.181181 1.44178 -2.36499e-19)
(0.263942 1.36214 1.85161e-19)
(0.199038 1.35321 1.48375e-19)
(0.274467 1.30148 3.03334e-19)
(0.24577 1.57984 -1.91734e-19)
(0.251606 1.61914 -1.98014e-19)
(0.0454527 2.2674 1.00319e-19)
(0.0464161 2.66653 0)
(0.0670053 2.3931 -1.74451e-19)
(0.0317749 2.41427 0)
(0.0631293 2.66459 1.15398e-20)
(0.04705 2.69599 0)
(0.146563 1.48295 4.39495e-19)
(0.207389 1.60958 0)
(0.183756 1.37412 0)
(0.192543 1.36216 -4.95439e-19)
(-0.0131186 2.65419 -3.65828e-20)
(0.0373306 2.69165 -2.72882e-19)
(0.0106892 2.71873 -1.91978e-21)
(-0.0739958 2.15715 -3.53459e-19)
(0.122603 1.8807 1.73243e-19)
(-0.0717185 0.984735 0)
(-0.0541348 0.918455 0)
(0.0890774 1.64543 -4.49105e-19)
(0.144931 1.47244 -4.55432e-19)
(0.136631 1.62562 5.78593e-19)
(0.0643118 1.63517 0)
(-0.286983 2.23893 4.89878e-19)
(-0.234303 2.42895 -1.90925e-19)
(-0.25471 2.4457 6.38056e-20)
(-0.148656 2.11845 4.21697e-19)
(-0.24833 2.5572 1.31647e-19)
(-0.205917 2.56037 -4.97382e-19)
(1.02097 0.0206648 -3.10376e-19)
(1.01818 0.0266096 3.1293e-19)
(1.01468 0.0180845 0)
(1.0168 0.0545935 4.47048e-19)
(0.996396 0.0455192 -5.25414e-19)
(0.962026 0.0270215 6.06865e-19)
(1.01525 0.0870272 -5.79779e-20)
(1.04165 -0.0068898 0)
(1.04818 -0.00415696 2.60813e-19)
(1.03772 -0.0110462 -2.60577e-19)
(1.06502 0.0341434 -1.43993e-20)
(1.05781 0.0142707 1.28449e-19)
(1.06284 0.0465127 0)
(1.05856 0.0385697 -4.77296e-20)
(1.03756 0.0340478 0)
(1.03211 0.0314652 0)
(1.02714 0.0125719 0)
(1.02444 0.0151689 0)
(1.04375 0.0254822 9.92537e-20)
(1.0398 0.018919 -2.2623e-19)
(1.05339 0.0214572 -1.01075e-19)
(1.05136 0.0224421 -1.15903e-19)
(1.07071 0.0554934 2.08414e-19)
(1.08226 0.049095 0)
(1.08972 0.0946442 0)
(-0.293404 2.20633 1.17987e-19)
(-0.252357 2.01 6.18495e-21)
(-0.257389 2.04294 0)
(-0.181829 2.2049 -1.17649e-19)
(-0.126593 2.08224 -8.38069e-21)
(-0.155116 2.14159 1.94841e-20)
(-0.207337 2.61648 -3.22703e-19)
(-0.224046 2.5381 2.37487e-20)
(-0.251666 2.54237 -1.17337e-19)
(-0.197851 2.54689 2.22413e-19)
(-0.205188 2.54739 8.44768e-21)
(-0.421929 1.74103 -1.07904e-20)
(-0.359291 1.90325 -1.95209e-19)
(0.362672 1.40861 -4.02988e-19)
(0.358876 1.35182 -3.82728e-19)
(0.637312 1.40897 -5.8083e-19)
(0.506589 1.47354 -3.13099e-19)
(0.555057 1.44983 0)
(0.588123 2.41325 1.26203e-19)
(0.655369 2.40291 2.28273e-19)
(0.412356 2.50896 7.97053e-20)
(0.40595 2.55378 -1.77408e-19)
(0.515108 2.51132 2.76919e-19)
(0.545269 2.45297 0)
(0.488642 2.50029 -3.58604e-19)
(0.250794 2.58178 5.99593e-19)
(0.355673 2.55646 -7.96622e-20)
(0.287136 2.64077 -9.12416e-19)
(0.928578 2.38273 2.50765e-19)
(0.827415 2.37978 0)
(1.01065 7.5385e-05 1.0521e-20)
(1.01489 -0.00557278 -8.54342e-21)
(1.01756 -0.00371758 -1.5473e-19)
(1.01473 -0.000851959 1.55347e-19)
(1.01211 0.000831454 0)
(0.624424 1.27983 0)
(0.636452 1.15724 0)
(0.737814 1.06648 0)
(0.628058 1.13098 0)
(1.18589 2.63421 5.68883e-20)
(1.07541 2.37328 0)
(0.843763 2.22044 -1.54186e-21)
(0.82772 2.47752 0)
(0.921435 2.56301 6.68601e-21)
(0.957571 2.51669 0)
(0.840841 0.147634 0)
(0.809854 0.138602 8.66933e-20)
(0.926647 0.122853 4.47956e-19)
(0.859977 0.117758 -1.78752e-19)
(0.843619 0.0635326 -5.36803e-19)
(1.04918 0.219071 -2.67041e-19)
(0.965502 0.273073 -1.57334e-20)
(0.906089 0.270763 4.08754e-19)
(0.983104 0.200062 3.04577e-19)
(0.940461 0.160448 -5.65757e-19)
(0.913384 0.169475 7.3083e-20)
(0.940792 0.232257 -1.42865e-19)
(0.917482 0.191919 0)
(0.979021 0.159316 -2.71865e-19)
(1.02673 0.167256 0)
(1.02016 0.193136 0)
(1.08351 0.111474 8.85259e-20)
(1.05191 0.159753 -1.30804e-20)
(1.04365 0.222629 -1.38702e-19)
(1.07843 0.193586 0)
(1.02738 0.0372323 2.35281e-19)
(1.04736 0.0483349 2.80726e-19)
(1.04011 0.0349374 -2.34448e-19)
(1.04844 0.0543088 -1.88929e-19)
(1.02445 0.0595455 -3.14687e-19)
(0.980363 0.129196 0)
(0.9992 0.081698 0)
(0.970629 0.0438653 -2.19707e-19)
(0.928606 0.0603386 9.10478e-20)
(1.03676 0.0868491 2.64974e-19)
(1.05608 0.112357 -2.70351e-19)
(1.06111 0.139772 2.47267e-19)
(1.02585 0.127778 0)
(1.06544 0.100089 0)
(1.05368 0.080226 -1.12466e-19)
(1.04771 0.0836959 -2.12369e-19)
(0.582129 1.08858 -8.46101e-20)
(0.619131 1.43229 1.87215e-19)
(1.16013 2.75298 8.78334e-20)
(1.22722 3.09168 -6.74869e-20)
(1.25099 2.73333 5.3432e-19)
(1.28305 2.71679 -3.27771e-19)
(1.2107 2.35599 -8.73114e-21)
(1.21375 2.99609 1.82291e-19)
(1.23204 2.96152 -1.96248e-19)
(1.21909 3.24541 -2.6304e-19)
(1.38084 2.97806 3.64082e-19)
(1.37307 2.89575 0)
(0.542949 0.849629 -1.4972e-20)
(0.151009 1.27158 3.8282e-19)
(0.525434 0.484916 3.53623e-19)
(0.364233 0.248705 3.84818e-19)
(0.535651 0.405681 4.15501e-19)
(0.545694 0.489019 -6.45246e-19)
(0.547679 0.491047 5.29345e-19)
(0.502967 0.426452 -2.13101e-19)
(0.438432 0.365175 4.89791e-19)
(0.773094 0.257117 5.94485e-19)
(0.734694 0.287947 0)
(0.72763 0.22596 1.07379e-20)
(0.715564 0.519616 1.98665e-19)
(0.682371 0.489691 -7.33493e-19)
(0.605474 0.484472 1.70654e-20)
(0.619439 0.475044 0)
(0.673168 0.724429 1.59671e-19)
(0.807886 0.760402 7.25377e-20)
(0.736076 0.836576 -9.22091e-20)
(0.849958 0.796504 -2.25359e-20)
(0.879821 0.835929 1.22764e-20)
(0.888657 0.837447 -1.25689e-20)
(0.819727 0.638472 -2.42378e-19)
(0.898408 0.693418 2.09469e-20)
(0.951774 0.703154 0)
(0.941995 0.677783 -2.12565e-20)
(0.992021 0.313791 6.7704e-20)
(1.10773 0.286656 1.2145e-20)
(1.03339 0.254542 1.09149e-19)
(0.972032 0.346381 -1.53604e-19)
(1.01796 0.411086 0)
(1.07226 0.401003 0)
(0.894111 0.353418 5.24851e-21)
(0.837056 0.286841 0)
(0.853721 0.277067 2.09753e-19)
(0.889611 0.278293 -6.18373e-21)
(0.911032 0.421523 8.20048e-19)
(0.86891 0.485453 2.08755e-19)
(0.87194 0.449778 -2.64527e-19)
(0.80273 0.436708 -2.83931e-19)
(0.786653 0.438229 1.92031e-19)
(0.753951 0.423578 -1.88441e-19)
(1.02776 -0.000630457 2.45065e-19)
(1.02004 -5.6303e-05 0)
(1.01847 0.00102097 1.65526e-19)
(1.02173 -0.00207023 -3.15025e-21)
(1.02213 0.00393282 1.80983e-19)
(1.02031 0.0107412 -3.79952e-19)
(1.02139 0.0102301 0)
(1.02107 0.0104336 -8.01324e-20)
(1.01589 0.00741398 2.01046e-19)
(1.01671 0.0100366 -1.00493e-19)
(1.0175 0.00924947 7.38941e-20)
(0.0884105 1.2104 0)
(0.173308 1.29589 0)
(0.0796546 1.29831 0)
(0.0629265 1.15397 0)
(0.0641179 1.39017 -6.93292e-19)
(0.0764646 1.35547 2.25982e-19)
(0.0994476 1.49953 1.52409e-19)
(0.0789239 1.36216 -1.72924e-19)
(0.111321 1.48655 4.28115e-19)
(0.0956053 1.46107 -3.2576e-19)
(0.0769495 1.37244 -5.39096e-21)
(0.0924309 1.38506 -5.54831e-19)
(0.117864 1.33804 6.47829e-20)
(0.132682 1.38778 -5.83469e-20)
(0.103035 2.39017 1.91908e-19)
(0.0996774 2.43063 0)
(0.178341 2.06883 -3.92879e-20)
(0.0912096 1.72046 -1.11297e-19)
(0.226346 2.06996 2.6625e-20)
(0.215784 2.45253 0)
(0.269423 2.40611 -1.32146e-19)
(0.304911 2.40706 9.42437e-20)
(0.234266 2.01507 1.02686e-19)
(0.155622 2.18285 3.59216e-21)
(0.145865 2.30883 0)
(0.0537826 1.90535 4.38987e-19)
(-0.025988 2.41392 4.94784e-19)
(0.0256543 2.21395 0)
(0.0157648 2.44426 -1.7424e-20)
(-0.0022891 2.30422 -2.03629e-19)
(0.0805829 1.36096 -8.61954e-20)
(-0.0231098 1.24743 1.42175e-18)
(-0.0292475 1.32846 -3.80287e-19)
(0.0842402 1.44453 -4.9763e-19)
(0.121748 1.52679 0)
(-0.128362 1.18987 0)
(-0.195661 1.11652 -3.24372e-19)
(-0.237536 1.17846 1.07103e-19)
(-0.164502 1.1673 0)
(-0.129735 1.01145 -2.64227e-19)
(-0.116043 1.01414 5.02325e-19)
(1.04119 0.00872765 0)
(1.04577 0.00477483 -2.44749e-20)
(1.04023 0.0171321 -1.80072e-19)
(1.04906 0.0127309 0)
(1.05022 0.0117538 0)
(1.03531 0.00868848 -6.17343e-21)
(1.03127 0.00996104 2.96037e-19)
(1.03111 0.0137606 3.57873e-19)
(1.02625 0.0186176 0)
(1.02414 0.0195282 0)
(1.03572 0.0207258 1.81136e-19)
(1.02737 0.0252291 0)
(1.02636 0.0235258 0)
(-0.355381 2.22325 0)
(-0.401255 1.96861 -4.69026e-20)
(-0.408096 2.12586 -1.12837e-19)
(-0.25622 1.32557 0)
(-0.442299 1.857 -2.14666e-19)
(-0.414896 1.67094 6.77484e-20)
(-0.368226 1.4033 0)
(0.387583 1.69735 0)
(0.359395 1.27875 6.27219e-19)
(0.30075 1.33669 0)
(0.411088 1.27194 -4.39829e-19)
(0.458866 1.44353 0)
(0.438039 1.38477 3.82036e-19)
(1.02881 2.70471 -4.68488e-21)
(0.952742 2.41718 -3.32784e-19)
(0.893811 2.17543 3.59599e-19)
(0.839572 2.37333 1.24028e-19)
(0.844888 2.5194 0)
(0.912152 2.51278 0)
(0.909145 2.37661 0)
(0.893992 2.35449 -4.71222e-19)
(0.69173 2.49544 -2.28514e-20)
(0.801381 2.48679 -1.5675e-20)
(0.813162 2.45906 1.19973e-20)
(0.688726 2.38244 0)
(0.792557 2.38135 0)
(0.752295 2.39114 -2.3249e-19)
(0.770224 2.5073 0)
(0.591656 1.08644 0)
(0.491321 0.942261 -2.26635e-20)
(0.548844 0.968901 -2.71411e-21)
(0.519855 1.06862 0)
(0.523377 1.02486 3.6654e-20)
(0.758807 0.854716 7.92627e-21)
(0.764613 0.997772 0)
(0.74037 0.955354 -5.42604e-20)
(0.625264 1.01993 0)
(0.633663 0.935476 0)
(1.16435 2.77431 4.45032e-20)
(1.14302 2.83815 1.15009e-19)
(0.935249 2.36452 -2.6828e-19)
(0.901742 2.34042 2.69868e-20)
(1.1277 2.74767 0)
(1.07931 2.71849 -3.70181e-20)
(1.08601 2.49685 -8.81534e-20)
(0.982062 2.23476 -2.97255e-20)
(0.496635 1.37182 0)
(0.505789 1.07797 7.46191e-20)
(0.543047 1.14964 0)
(0.860049 0.216934 0)
(0.818982 0.168823 0)
(0.775396 0.156877 0)
(0.850638 0.223277 -3.29895e-19)
(0.793064 0.221863 2.03984e-19)
(0.93754 0.0506397 -1.86906e-19)
(0.952525 0.0993795 0)
(0.925347 0.104676 8.34389e-20)
(0.884577 0.0818587 3.41242e-19)
(0.869534 0.0458849 -2.09735e-19)
(1.16778 3.37056 -9.69837e-19)
(1.21464 3.28993 0)
(1.16666 3.3975 -1.91114e-18)
(0.653274 3.55751 1.64041e-18)
(0.881016 3.12307 3.59167e-19)
(0.520669 0.875552 2.54915e-19)
(0.443181 0.872255 0)
(0.353906 0.518429 -8.72686e-20)
(0.455409 0.689404 -4.08756e-19)
(0.530525 0.485606 -1.14884e-19)
(0.509915 0.524482 1.34843e-19)
(0.651003 0.537906 2.76623e-19)
(0.680027 0.562421 0)
(0.639928 0.61743 0)
(0.592743 0.557284 0)
(0.949419 0.584458 -4.85311e-20)
(0.871445 0.531937 -2.01921e-19)
(0.898738 0.566002 9.97256e-20)
(0.928423 0.501509 -1.48417e-19)
(1.03135 0.468352 0)
(1.04314 0.556164 -8.80776e-21)
(0.828864 0.388569 -4.2423e-19)
(0.833983 0.372297 6.39473e-19)
(0.783847 0.386024 3.32774e-19)
(0.777112 0.352822 -3.7502e-19)
(0.833646 0.307754 -2.77329e-19)
(0.788169 0.305281 3.41228e-19)
(1.02634 0.00537827 -1.92361e-19)
(1.02604 0.00587645 3.94597e-19)
(1.02917 -0.00104299 2.3234e-19)
(1.03325 0.000819152 -2.87665e-19)
(1.03319 0.00752654 0)
(1.02977 0.00778113 -4.63501e-19)
(0.0360655 1.66023 -6.13776e-20)
(0.0550166 1.57933 0)
(0.0582716 1.69678 -4.99443e-19)
(0.0727591 1.68156 4.60165e-19)
(0.0730333 1.50291 -2.82333e-19)
(0.0871125 1.48969 0)
(-0.219904 2.12495 0)
(-0.198886 1.63049 1.40549e-19)
(-0.361672 1.62388 -1.28232e-19)
(-0.383199 1.86288 -5.07658e-20)
(-0.33223 2.24104 2.21216e-19)
(-0.293623 2.24419 3.79196e-19)
(0.49177 1.38023 3.95799e-19)
(0.486359 1.38578 4.59905e-19)
(0.432161 1.27079 4.07408e-19)
(0.425818 1.29247 -2.4838e-20)
(0.613487 1.28187 0)
(0.534728 1.37581 5.22029e-19)
(0.550042 1.38476 -5.07833e-19)
(0.439672 1.25876 -3.92821e-19)
(0.493445 1.21385 0)
(0.549017 1.18282 0)
(0.656472 2.45245 3.35883e-20)
(0.668363 2.4773 5.53162e-19)
(0.71734 2.4945 -3.80656e-19)
(0.623646 2.4772 -1.22903e-19)
(0.559976 2.57117 1.05337e-19)
(0.512668 2.54366 -3.13586e-19)
(0.966798 2.37855 -1.93712e-19)
(1.00932 2.39942 0)
(0.909025 2.15439 -2.60433e-19)
(1.04763 2.69903 0)
(1.04956 2.68596 0)
(0.624854 2.28507 2.16155e-19)
(1.04839 3.17129 4.62739e-19)
(0.919173 3.04017 -4.04228e-19)
(0.290015 0.945755 0)
(0.338237 0.813036 -1.664e-19)
(0.497527 0.769515 -5.84481e-19)
(0.401131 2.03181 0)
(0.470298 2.78864 -2.50022e-19)
(0.43103 2.55342 0)
(0.683944 0.673209 -3.31848e-19)
(0.755334 0.669242 4.25341e-19)
(0.77529 0.619781 2.9787e-19)
(0.668751 0.646888 4.87601e-20)
(0.714415 0.597678 -1.99868e-19)
(1.00951 2.77713 -3.51813e-19)
(1.04298 2.83193 2.6575e-19)
(0.650256 2.17572 9.6197e-20)
(0.609069 1.73338 -9.72969e-20)
(0.705757 1.92307 8.78989e-20)
(0.994291 2.46023 -7.00129e-20)
(0.996506 2.45577 -1.41971e-19)
(0.675038 1.86691 -3.55949e-21)
(0.463598 1.35229 -8.57156e-20)
)
;

boundaryField
{
    wall-4
    {
        type            noSlip;
    }
    velocity-inlet-5
    {
        type            fixedValue;
        value           uniform (1 0 0);
    }
    velocity-inlet-6
    {
        type            fixedValue;
        value           uniform (0 3 0);
    }
    pressure-outlet-7
    {
        type            zeroGradient;
    }
    wall-8
    {
        type            noSlip;
    }
    frontAndBackPlanes
    {
        type            empty;
    }
}


// ************************************************************************* //
