/*--------------------------------*- C++ -*----------------------------------*\
| =========                 |                                                 |
| \\      /  F ield         | OpenFOAM: The Open Source CFD Toolbox           |
|  \\    /   O peration     | Version:  2412                                  |
|   \\  /    A nd           | Website:  www.openfoam.com                      |
|    \\/     M anipulation  |                                                 |
\*---------------------------------------------------------------------------*/
FoamFile
{
    version     2.0;
    format      ascii;
    arch        "LSB;label=32;scalar=64";
    class       volScalarField;
    location    "10";
    object      p;
}
// * * * * * * * * * * * * * * * * * * * * * * * * * * * * * * * * * * * * * //

dimensions      [0 2 -2 0 0 0 0];

internalField   nonuniform List<scalar> 
918
(
0.214629
0.916243
0.00709933
0.213482
0.000929397
0.883364
-0.831854
0.401023
0.193943
-0.1305
0.0209001
0.184727
0.744435
0.511994
-1.46023
0.0157237
0.353938
-0.637207
0.191618
0.00626855
0.498218
0.201059
0.20455
0.195677
0.248767
0.513741
0.624766
-0.000584349
-0.00180706
-0.000249389
0.000974239
-0.00155057
0.00625458
0.767011
0.81805
0.840652
0.162513
0.0833353
-0.678718
-0.769686
-0.705729
-0.85178
0.386091
0.393873
-0.502765
0.398838
0.411024
0.184892
0.193532
0.19439
0.195841
0.194475
0.196467
0.304753
-0.138842
-0.206353
-0.0848559
-0.0632645
0.0874682
0.021505
0.0164836
0.0234334
0.0253912
0.125381
0.181874
0.181295
0.188305
0.198494
0.855767
0.82769
0.853737
0.767683
0.78399
0.722444
0.694775
0.532082
0.553241
0.497446
0.488086
-1.8858
-2.83094
-0.86928
-0.610078
0.00117994
0.022455
0.031712
0.334473
0.341872
0.347136
0.362338
0.807231
-0.569113
-0.756899
0.191727
0.189153
0.200539
0.201401
0.197366
0.19664
0.0141919
0.0171261
-0.00595798
0.00445191
0.00228853
0.461853
0.45712
0.196226
0.192402
0.205953
0.229492
0.21458
-0.0327241
0.26188
0.294339
0.298618
0.486688
0.48837
0.494348
0.598489
0.560512
0.662389
0.686114
0.00701154
0.00207684
0.0143309
0.0100063
0.0129234
0.162284
0.157456
0.177399
0.16617
0.168334
0.00774451
-0.1388
0.172705
0.148898
-0.601332
-0.678272
-0.66202
-0.724989
-0.827484
0.250981
0.377128
0.382943
-0.509476
-0.420378
-0.581262
-0.357241
-0.434955
0.168408
0.179181
0.173161
0.190087
0.187217
0.187157
0.197511
0.194707
0.196239
0.339851
0.414114
0.260952
0.235188
-0.389231
-0.247344
-0.397774
-0.027936
-0.0206234
0.0986829
0.113801
0.0817114
0.073896
-0.00831378
0.00809637
-0.00357388
0.026687
0.0289862
0.117705
0.108154
0.13443
0.140438
0.175313
0.17431
0.17934
0.175878
0.645624
0.668215
0.675594
0.649297
-3.81189
-6.57845
-0.282963
-0.13627
0.00148538
0.0027847
0.0010889
0.002421
0.00266112
0.0017797
0.0463055
0.0414839
0.0359507
0.0379769
0.322047
0.326793
0.79915
0.859643
0.724561
0.706266
0.179617
0.18306
0.187185
0.182393
0.0249459
0.0195816
0.0241226
0.410371
0.434333
0.432061
-0.0712124
-0.159374
0.0150734
0.0399775
0.311272
0.29535
0.315859
0.365304
0.403193
0.693172
0.711228
0.709862
0.717582
0.761599
0.777884
0.743255
0.145007
0.153054
0.149597
0.178325
0.178311
0.176372
0.172509
0.174876
0.173424
-0.299428
-0.690022
-0.133644
-0.0330579
0.156125
0.0799343
0.367212
0.520441
0.356192
0.368832
0.375596
-0.289314
-0.364053
0.205814
0.182899
0.0658569
0.0955425
0.0797241
0.616838
0.577671
0.627248
0.600975
0.562958
0.588914
-0.654837
-2.15839
-1.27839
0.236779
0.0359512
0.130802
0.0656041
0.0513577
0.0561241
0.817211
0.84664
0.456977
0.597342
0.566954
0.447805
0.481148
0.532783
0.454338
0.49112
0.530482
0.513538
0.0176432
-0.175444
-0.0918742
0.598799
0.775427
-0.180963
-0.229065
-0.291603
0.122513
0.156532
0.140561
0.825692
0.765854
0.833668
0.192425
0.193238
0.00807636
0.0124986
0.19602
0.196103
0.00681764
0.0108868
0.10356
-1.16692
-0.195834
0.184662
0.176179
0.192355
-0.0943708
0.302956
0.0262734
0.0958113
0.0615653
0.181412
0.133143
0.097047
0.00730315
0.0227947
0.0140399
-0.408701
0.188819
0.187524
0.191462
0.193534
0.193368
0.00810561
0.0084043
0.00486205
0.01208
0.00721733
0.00701917
0.160964
0.173427
-0.535433
0.192057
0.193816
0.193636
0.186882
0.192647
0.190261
0.0183866
0.0121142
0.0155904
-0.0770965
0.0357945
0.373576
0.50511
0.301882
0.0764132
-0.171421
0.268061
0.339651
0.230153
0.40965
0.35712
0.383952
-0.140222
-0.279901
-0.11858
-0.174232
0.182966
0.182683
0.176985
0.169096
0.187279
0.185926
0.19022
0.186689
0.189896
0.19142
-0.0522641
-0.0601197
-0.114254
-0.193142
0.318543
0.414605
0.245434
0.245276
0.146023
0.0268479
0.0266538
0.0253706
0.0141027
0.0697599
0.0671663
0.0782621
0.0786549
0.0521504
0.0498653
0.0659833
0.0629312
0.0685438
0.177009
0.177036
0.181251
0.1879
0.139214
0.144362
0.114191
0.132578
0.120522
0.0667533
0.0956958
0.0749202
0.00767086
0.00913116
0.00535016
0.0278418
0.0334534
0.0144886
0.0115648
0.0135607
0.00983015
0.010353
0.0178665
0.0227348
-0.379046
-0.511411
0.797524
0.651299
0.326095
0.180026
0.184832
0.182067
0.187543
0.189423
0.190472
0.188239
0.186373
0.173607
0.17508
0.171943
0.171627
-0.515092
-0.562904
-0.421281
-0.46371
-0.10872
0.293321
0.0460018
-0.0147173
-0.0215951
0.191848
0.497109
0.357319
0.460601
0.483355
-0.685632
-0.305992
-0.621003
-0.0451905
-0.208452
0.37686
0.433266
0.458504
0.402081
0.346204
-0.390978
0.202785
-0.383258
-0.342097
-0.158385
-0.253848
0.402339
0.341513
0.350376
0.371784
0.388841
0.34542
0.324699
0.32149
0.362314
0.365675
0.161262
-0.0432244
-0.092578
-0.126003
0.326433
0.201886
0.261187
0.178895
0.176401
0.180479
0.177472
0.164305
0.171548
0.16767
0.170901
0.173075
0.183357
0.182042
0.17813
0.180543
-0.0376648
-0.0246327
-0.0704275
-0.276244
-0.221165
-0.298409
-0.130359
0.117647
0.104458
0.365845
0.370052
0.066872
-0.162266
-0.105589
-0.149979
0.145346
0.0995012
0.112597
0.160704
0.182015
0.150743
0.212194
0.195849
0.0438504
0.0582705
0.0352884
0.0351326
0.101807
0.124018
0.122692
0.0512399
0.0496561
0.028784
0.0275406
0.0792504
0.0460754
0.0630412
0.0690675
0.02395
0.0278472
0.0314963
0.0450755
0.0440528
0.0468707
0.172661
0.17348
0.17336
0.185624
0.197316
0.209184
0.178186
0.157786
0.150235
0.153413
0.132631
0.141009
0.13959
0.146685
0.163362
0.170739
0.169325
0.17082
0.156906
0.159633
0.149283
0.150721
0.134626
0.116141
0.104202
0.0178049
0.0135631
0.0149062
0.0135871
0.0111583
0.0110211
0.0456284
0.0357091
0.0418469
0.0374801
0.0414495
0.017994
0.0204735
-0.275188
-0.14977
-0.517577
-0.47236
-0.557092
0.724067
0.787528
0.643408
0.497886
0.539575
0.67347
0.752041
0.446139
0.536148
0.532772
0.124073
0.740796
0.184878
0.185303
0.181129
0.179512
0.181899
-0.427517
-0.332649
-0.260972
-0.190822
-0.00123325
0.127888
-0.440235
-0.31832
-0.186525
-0.273128
0.28643
0.302772
0.250187
0.276405
0.27854
0.114519
0.176437
0.232875
0.192858
0.2309
0.25258
0.216062
0.24403
0.192702
0.154275
0.155484
0.100947
0.121294
0.100397
0.0793085
0.171078
0.152866
0.161354
0.156496
0.173709
0.202109
0.193456
0.214181
0.234187
0.161769
0.128615
0.136981
0.161256
0.124774
0.136629
0.151152
-0.114355
-0.0907891
-0.0640208
-0.368998
-0.257369
-0.294232
-0.329241
-0.289057
0.0170417
-0.70083
-0.680724
-1.30884
0.164246
0.546532
0.350533
0.31268
0.386005
0.362419
0.362162
0.39857
0.409158
0.316856
0.335848
0.337051
0.292247
0.312427
0.341819
0.341701
0.187079
0.0542572
0.0346334
0.00934793
-0.114383
-0.0833789
0.121022
0.0430309
-0.0243635
-0.0191935
0.140422
0.0431318
0.110075
0.13357
0.0699786
0.0323451
0.223358
0.281397
0.27295
0.255829
0.173436
0.181257
0.210999
0.244349
0.268791
0.299161
0.171925
0.17874
0.178569
0.176967
0.174695
0.175813
0.17504
0.176712
0.179042
0.18056
0.179088
0.0143518
0.0259378
-0.00642853
0.000174749
0.0113464
-0.0136318
0.0420425
0.00438716
0.0401127
0.0392688
0.0058381
-0.0132005
0.00189432
0.0228825
0.172154
0.201619
0.182314
0.134763
0.241493
0.393532
0.440543
0.379895
0.203887
0.224687
0.281201
0.0918193
0.0956208
0.0859716
0.105312
0.102182
0.0320492
0.0342708
0.0366267
0.042872
0.0414526
0.0321744
0.0243052
0.0257491
0.0299603
0.0281167
0.0260618
0.160799
0.156109
0.156419
0.151177
0.149183
0.161997
0.164276
0.166232
0.170071
0.171033
0.164888
0.168213
0.170192
0.0321406
0.0261911
0.028388
0.0259058
0.0267307
0.021689
0.0209595
-0.265402
-0.110832
-0.0160707
-0.310876
-0.408176
-0.315824
-0.110335
-0.0704723
-0.268713
0.608883
0.324476
0.14789
0.276857
0.445116
-0.0233705
0.280105
0.0483275
0.727678
0.619523
0.763714
0.385626
-0.0878249
0.103893
0.119914
-0.0622572
0.0417751
-0.0303632
-0.131139
-0.0982332
-0.0838731
0.0182841
-0.082196
-0.0584349
-0.379829
-0.51734
-0.0815151
-0.180669
0.0991792
0.100623
-0.494403
-0.324758
-0.393064
0.279223
0.297152
0.314271
0.28632
0.31059
0.238747
0.230489
0.249237
0.258276
0.248871
-1.03962
-0.736461
-1.71884
-1.07301
-0.61753
0.211368
0.185072
0.376848
0.286897
0.362209
0.348104
0.317113
0.286213
0.286541
0.320949
0.0367122
0.141122
0.114909
0.126274
0.0362833
-0.0253661
0.256616
0.248382
0.286395
0.308894
0.270002
0.30819
0.170857
0.170139
0.168056
0.166521
0.163489
0.16509
0.102317
0.0766998
0.123557
0.105526
0.06508
0.0550453
0.0399253
0.0339382
0.0317365
0.0315424
0.0352631
0.04051
-0.601979
-0.50476
-0.469751
-0.467903
-0.462881
-0.478308
-0.469597
-0.616226
-0.641179
-0.510722
0.284668
0.63069
0.465519
0.657452
0.413632
0.514479
-0.269934
-0.0527127
-0.154018
-0.112422
-0.11866
-0.0484785
-0.549996
-0.473894
0.371372
0.41159
0.257972
0.0692749
-0.194039
-0.0371512
0.208357
0.143271
0.18567
0.25092
0.246737
-0.287388
-0.234634
0.0965665
0.316892
0.0339661
-0.0656063
-0.0286265
0.130487
0.0740306
)
;

boundaryField
{
    wall-4
    {
        type            zeroGradient;
    }
    velocity-inlet-5
    {
        type            zeroGradient;
    }
    velocity-inlet-6
    {
        type            zeroGradient;
    }
    pressure-outlet-7
    {
        type            fixedValue;
        value           uniform 0;
    }
    wall-8
    {
        type            zeroGradient;
    }
    frontAndBackPlanes
    {
        type            empty;
    }
}


// ************************************************************************* //
