/*--------------------------------*- C++ -*----------------------------------*\
| =========                 |                                                 |
| \\      /  F ield         | OpenFOAM: The Open Source CFD Toolbox           |
|  \\    /   O peration     | Version:  2412                                  |
|   \\  /    A nd           | Website:  www.openfoam.com                      |
|    \\/     M anipulation  |                                                 |
\*---------------------------------------------------------------------------*/
FoamFile
{
    version     2.0;
    format      ascii;
    arch        "LSB;label=32;scalar=64";
    class       surfaceScalarField;
    location    "10";
    object      phi;
}
// * * * * * * * * * * * * * * * * * * * * * * * * * * * * * * * * * * * * * //

dimensions      [0 3 -1 0 0 0 0];

oriented        oriented;

internalField   nonuniform List<scalar> 
1300
(
3.75095
5.62643
-6.30639
3.75095
-6.18922
5.62643
-4.46196
4.46196
-1.5319
1.5319
1.87627
1.87469
-5.00019
5.00019
-5.07315
5.07315
-2.90446
2.90446
-5.24594
5.24594
-5.06835
5.06835
4.67398
-4.67398
-5.00851
5.00851
-1.96341
1.96341
-5.06871
5.06871
3.17573
-3.17573
-5.23431
5.23431
-0.594751
0.594751
-0.553207
4.30416
3.19775
3.19775
-2.63386
2.63386
-4.84329
4.84329
6.21789
-6.21789
9.54346
-9.54346
-3.23707
-3.3814
1.36513
-8.11321
-4.8241
-4.8241
-8.44044
8.44044
-2.81401
2.81242
3.00982
-3.00982
-1.76195
1.76195
-4.43811
-0.0238485
-4.43811
4.51052
-0.048563
4.51052
-1.6742
0.142296
-1.6742
4.09914
-4.09914
1.3433
0.188609
1.3433
3.03772
-3.03772
-1.87709
3.75335
1.87387
-1.87173
6.17589
-1.87922
3.75391
-4.89749
4.89749
-5.09733
0.0971415
-5.09733
4.95972
0.0404679
4.95972
-5.29477
5.29477
-5.01343
-0.0597167
-5.01343
5.13074
-0.0575978
5.13074
3.10328
-3.10328
-2.92483
0.0203749
-2.92483
2.84928
0.0551737
2.84928
0.353723
5.27271
-5.98015
8.79257
-5.27271
0.0267691
5.2079
0.0380341
5.2079
-5.10622
0.0378671
-5.10622
5.00982
0.0585333
5.00982
4.74758
-0.0735994
4.74758
-4.8007
0.126723
-4.8007
-3.34845
-3.27494
-5.08314
0.0746218
-5.08314
-1.99826
0.0348544
-1.99826
1.93383
0.0295757
1.93383
-3.78112
3.78112
-4.89667
-0.172033
-4.89667
3.1225
0.0532236
3.1225
1.86844
1.88251
5.6194
-5.6194
2.44367
-5.22796
-0.00634878
-5.22796
-5.25639
-4.28707
5.25639
-0.0220799
-0.909753
0.315002
-0.909753
3.16272
0.0350297
3.16272
2.75778
0.091507
-2.75778
0.123911
3.48641
-3.48641
2.01956
0.614303
2.01956
-5.57395
5.57395
4.94696
0.0628595
-4.94696
0.103667
6.15745
0.0604472
6.15745
-6.1994
-0.0184939
-6.1994
3.35952
-6.74092
-3.35763
4.9246
0.0839142
-4.9246
0.100502
3.02861
-0.0187954
3.02861
-2.95635
2.95635
-2.99944
-0.01038
-2.99944
-2.17135
0.409396
-2.17135
1.36181
0.400139
1.36181
-4.35658
-0.0815349
-4.35658
-4.6274
-0.269272
4.6274
-0.116878
0.880174
-0.880174
-1.80523
0.131029
-1.80523
-4.22359
-0.13299
4.22359
-0.124445
-4.01367
-0.0854723
-4.01367
-3.00507
0.00563514
3.00507
0.0326453
3.10317
0.0595482
-3.10317
0.0654518
-1.87074
3.75325
-1.88022
3.75409
-4.70391
-0.193579
-4.70391
5.0083
-0.110818
5.0083
5.2031
-0.13439
-5.2031
0.105765
4.93142
0.0283057
4.93142
-5.27688
-0.0178899
-5.27688
5.27528
0.0194954
5.27528
4.9464
-0.0149855
-4.9464
-0.0670272
5.18088
-0.0501352
5.18088
3.14953
-0.0462465
3.14953
-3.07332
-0.0299601
-3.07332
2.96324
-2.96324
2.94333
0.0199052
-2.94333
0.0184996
-11.133
11.1145
-0.0345967
-11.0984
5.17331
5.17331
4.15414
0.593442
4.15414
-5.01362
0.212922
-5.01362
3.34866
-6.7063
3.2838
-6.63225
3.31664
-11.4299
3.36153
-6.63647
5.21444
-5.21444
5.15688
0.057558
-5.15688
0.0737452
-2.01161
0.0133549
-2.01161
-3.34928
-0.431842
-3.34928
4.11106
-0.329933
4.11106
-3.00148
3.00148
-3.06536
0.0638827
3.06536
0.0571417
5.21397
-0.0330872
-5.21397
-0.0139907
1.12292
0.220375
-1.12292
0.213167
3.68405
-0.197632
3.68405
-3.29805
-0.188362
-3.29805
-2.04085
0.0292356
2.04085
-0.0212884
-5.81859
0.244642
-5.81859
-11.1913
0.0928506
-11.1532
-6.10655
-6.10655
2.33389
11.1265
-3.05012
-0.0231988
3.05012
-0.0215105
2.95725
0.0442301
-2.95725
0.000895936
-2.96716
0.003923
2.96716
-0.0108047
-2.54018
0.368835
-2.54018
-0.576276
0.576276
-0.953403
0.377128
0.953403
0.40841
1.38996
-0.509783
1.38996
1.89467
0.0391571
-1.89467
0.0894422
-3.93126
-0.0824079
-3.93126
5.0828
-0.0744982
5.0828
-3.20276
-0.0952933
3.20276
-0.0532312
-0.033098
11.1476
-5.14021
0.0339884
5.14021
-11.2081
11.2421
-3.20366
0.663475
3.20366
0.950478
5.30071
0.27324
-5.30071
0.287088
5.25059
0.0246822
-5.25059
0.0361541
-2.91852
-0.430758
-2.91852
-4.4129
-0.291008
4.4129
-0.301843
-11.4749
-0.202443
11.6773
-11.4163
6.02104
0.136411
-6.02104
11.3785
-0.546019
-0.334155
0.546019
0.030257
1.93726
-0.5473
1.93726
3.84511
-0.161069
-3.84511
-0.0861464
-5.18244
-0.0944459
5.18244
-0.0996335
-2.44912
-0.469403
2.44912
-0.511864
-4.27223
4.30726
1.90366
-3.35866
-3.38225
-7.64574
1.8506
1.90264
4.29427
-7.03605
-4.3938
-6.93555
7.28321
-6.99612
-9.27733
9.20373
7.42233
-7.5078
-5.77046
5.8276
6.38266
-6.35002
1.88015
1.87321
10.3276
-10.2304
-10.7964
10.6028
10.173
-10.2327
10.7681
-10.786
-12.4011
12.4258
-5.73398
5.75436
-6.60827
6.57831
-6.77175
6.71852
-3.33551
-3.29674
9.03913
-8.96451
11.7638
-11.7701
-9.80132
9.62929
3.37455
0.932714
3.4341
-1.88704
3.76719
-1.86686
3.77052
3.35149
-6.687
3.35481
-6.73706
6.05814
5.70563
-6.03606
-1.60968
-5.87138
5.85259
-5.85552
5.84471
8.54946
-8.57331
-1.88636
3.75957
-1.86772
3.77036
-3.41395
-2.35651
3.36073
0.933543
5.56814
3.47099
-5.65206
-1.28349
-7.59196
7.43089
-7.86983
7.68147
-0.472872
5.83847
-5.3656
4.37042
-1.55914
7.39761
5.72407
5.93699
5.87087
-5.59763
1.12524
-6.49084
-6.38717
-2.68293
2.81396
2.64174
-2.45313
5.84947
1.57286
5.72503
-5.42919
-2.07862
-5.5116
3.7971
2.0305
3.86098
4.01875
2.36392
4.02438
3.03927
-3.02965
-0.00962087
-3.07732
6.11659
0.729919
-5.43383
-4.50028
6.79294
3.53465
6.8334
-6.78385
-3.44659
-6.67809
-6.56725
-4.22917
-6.85826
6.79973
3.80311
6.68891
-8.02226
7.92262
6.80014
3.37284
6.74255
-6.71929
-3.51341
-6.78632
10.4932
-2.6934
-7.79983
-6.95672
-5.44436
6.93722
3.83091
7.54576
4.87999
7.58192
3.56697
6.92626
-7.39789
1.95353
-3.83443
-1.89955
-3.81593
3.71554
2.03882
3.77071
-4.13412
-2.47415
-4.15732
-4.19689
-2.57486
4.24314
2.33518
-4.31412
-3.55571
4.40942
2.3091
2.98887
-7.38267
3.64761
-6.94435
-6.30348
-2.66103
-6.22974
4.09428
2.62713
-6.72141
-2.59272
10.9394
-5.23382
9.32977
-7.32372
-4.4464
-7.33771
-6.40598
-3.39534
-6.67525
-6.28683
5.85607
-6.24765
5.91772
12.608
-4.96413
-7.64389
-3.93939
-2.41063
3.87394
-0.439846
-3.73331
3.72369
0.0338784
3.8044
4.73712
4.29727
-3.86391
-1.9916
-3.86302
3.85193
1.99278
3.85585
6.1122
2.43725
6.06364
-6.13825
-2.43505
-6.21979
9.03969
-8.6303
2.93943
-2.91019
5.12673
2.55474
-4.9291
-2.66286
5.96476
-3.00133
-2.96343
-12.277
10.6496
1.62741
-4.87939
-0.508971
0.0857803
-5.51586
-3.76147
5.38914
0.547853
11.1974
7.43598
-5.51603
5.76067
6.16128
6.22414
-0.163036
5.77653
-5.11305
5.24873
-2.24455
-3.00418
5.17656
-5.30955
-1.04323
-5.26171
4.21848
0.415483
1.90349
-1.58849
-2.16811
-0.514825
-2.07867
1.60915
1.03258
1.82953
1.00723
1.80674
-2.87219
0.504094
2.3681
-1.86496
-1.94903
-3.6247
-0.860095
4.48479
5.40657
2.02432
-5.32042
-0.191174
2.80542
-2.77585
-0.886681
-2.73802
1.90244
-2.78912
-3.36411
-1.85919
5.22331
-3.35692
-0.506099
3.31269
0.548289
-3.74611
-2.12527
3.75649
0.267891
-3.08763
6.15678
-3.06915
-5.07923
2.52859
3.58801
4.55909
-4.86523
2.47801
2.38723
-1.27723
5.89175
0.941657
5.92005
-8.91373
5.46714
7.13488
2.49441
-7.00049
0.322401
-8.59133
9.87564
-8.17715
-1.69848
5.4323
4.44334
5.7943
6.81372
-4.36793
10.1622
-0.198303
-7.97885
8.78963
-6.29522
4.5154
-10.8106
-11.3291
3.35027
-7.14477
8.64458
-1.49981
-2.40809
-5.61417
9.55286
-1.00025
-8.55262
5.68866
-5.40457
-5.3065
10.7111
-8.09797
8.81992
-2.64916
-6.17076
-6.71733
-4.06869
6.81178
1.11084
-9.9246
11.8781
-2.99834
5.92832
0.814226
5.87819
3.93241
-6.04552
2.1131
4.16555
-6.81471
2.62616
-8.67168
-4.8622
9.5124
-4.6502
-7.52323
-6.7343
-0.788925
2.03549
9.84264
-6.91548
5.32456
1.59092
3.32015
0.5357
-3.34006
-0.475875
0.342963
4.43821
-4.78117
4.11367
4.20518
3.31242
1.12579
3.81895
2.03364
-3.79743
-0.359882
-4.02113
1.44626
-1.68595
-3.44964
4.89591
-3.90432
0.454672
-2.63144
-3.44552
6.07696
-4.53099
3.05683
3.09995
5.04961
-4.79316
1.34765
-2.37157
-2.42159
2.55667
-4.24262
1.827
3.06891
4.1361
0.580393
4.81882
4.69358
-7.44594
0.501594
8.16457
-6.88107
1.68754
5.89438
-7.0121
0.2778
-5.95194
1.11439
-6.3482
-5.60702
4.01275
-7.40809
-6.79787
5.61408
0.449564
-5.4972
-1.17805
-4.10981
-2.17702
-4.57921
-2.04311
-4.20454
-6.41105
-1.21969
-5.19136
4.63638
-4.60868
-2.24957
4.91053
1.00719
-7.41075
7.07659
-6.33804
5.79074
0.049101
3.67459
4.34637
1.93575
-2.39736
4.33311
-3.80509
6.24235
-8.15949
4.3544
4.14583
-6.58089
-4.01366
4.99562
4.04408
5.39575
9.62547
-11.2228
1.59732
-12.0995
11.8776
0.221925
-17.8893
5.7898
-8.26387
2.68033
0.259093
2.69369
0.640163
2.323
-2.96316
-2.27003
-2.29132
-2.1776
-3.24622
5.42382
1.09609
-3.20608
2.11
-3.41996
4.51605
0.0344008
-3.24049
5.11628
-2.79328
5.37537
-3.38556
1.98981
3.17149
5.41809
-2.2466
4.17484
-1.6201
1.73424
-3.98084
-1.51198
-2.94708
4.9859
-3.12988
3.58455
-0.204732
3.78928
-3.94379
0.942461
-0.631377
3.5738
3.69771
4.15209
-3.0263
2.79218
-4.41228
-1.18866
-3.83188
-0.762977
0.763753
-4.66276
3.89901
7.11023
-6.34648
-5.17448
9.53155
-4.35707
7.65942
-5.35972
-2.29969
-4.23811
-4.39219
3.86927
1.90726
9.56667
0.208757
-5.56848
-4.90429
-3.95382
3.22116
2.02758
-2.16843
3.79583
2.08265
-0.179154
0.626655
1.20287
1.87296
-1.24631
0.17245
1.70051
-1.41604
2.11086
0.694565
-2.15002
0.0713475
-1.38489
3.28733
0.983206
-2.01579
0.76948
1.09808
-3.34263
4.76075
-2.47243
-2.28833
5.85883
1.07301
-3.54544
4.1887
-3.77321
2.33214
-3.19223
-1.2133
-4.98652
-3.41366
-2.40508
4.51507
-3.01874
5.04306
1.15096
-4.85189
6.00285
-3.37864
1.51944
-3.07992
3.77448
-1.13741
-1.9425
2.61704
2.60627
-2.81341
0.0753887
-0.196366
2.17517
-2.37154
-0.613945
-2.47891
-4.58268
4.85057
-2.11434
4.59235
2.21876
-1.90927
6.50163
1.85248
-3.76175
-3.22676
-3.73286
-1.37453
3.18457
-0.98166
-5.80466
-7.15242
5.81964
0.100409
-8.97948
10.2989
-1.31942
-5.44484
-0.0223037
5.45461
-7.55095
0.736242
-4.9248
5.37411
6.31577
6.41618
-8.65535
0.102739
-4.85224
1.49022
-6.34247
5.93356
-3.50145
6.85172
-7.66798
5.41841
-6.66079
5.15323
-1.18924
5.6206
-3.5075
2.17923
-6.24792
-5.13708
6.98368
-3.61083
7.7979
-4.1019
11.8998
-7.10024
6.93721
4.9626
-1.39565
-5.94206
-6.84025
5.4446
0.0969614
5.97515
4.87667
-2.84302
4.51679
2.19999
-4.57156
-2.04263
-6.4147
1.84314
-3.31475
-1.86407
3.70721
3.18554
3.72124
1.28562
-3.24537
6.66388
-7.4528
-2.01368
-3.59334
6.75444
-1.30985
4.04016
-7.6335
-2.30804
7.76557
-3.58357
-4.182
-2.80145
-3.99643
3.77903
-7.77545
3.62906
-4.80712
2.14141
-10.4053
-5.26934
-5.23909
-1.82585
-4.5122
-7.84441
6.01856
-2.05461
5.02198
-9.36074
5.77717
-2.51687
8.53544
-3.89909
-0.680119
4.41096
1.37979
9.91522
0.796012
-4.80967
-1.90791
4.26332
-2.35541
1.31325
-3.86675
0.396573
2.36963
3.4892
-6.58811
0.00721995
-4.80245
-4.04464
8.08872
5.48691
12.5971
1.37435
9.36441
-1.27569
10.7388
4.12006
4.52847
-4.35637
5.95369
-0.457356
3.89704
-0.826523
2.81633
1.86717
1.90202
0.873828
2.23611
1.46161
3.17857
0.215406
-2.07591
4.62249
-8.57631
-0.945987
-7.98287
1.22086
5.80523
-4.58437
3.28672
-1.25914
0.931301
0.332575
-1.7604
1.42782
-2.67161
-1.93955
-0.239039
-1.47216
2.24164
1.81517
-2.0026
-0.669007
0.261065
-3.67472
2.93117
-2.85578
-0.249512
5.75334
-2.57522
0.203677
-1.05577
-2.27523
-2.79006
2.71871
6.17482
0.326808
3.10567
5.17738
3.05211
0.209082
4.62962
-6.12942
-4.04206
-6.02668
-0.0931253
5.36148
2.0499
7.79274
7.0125
5.70265
-1.93085
-9.38365
7.7786
-1.82492
8.00053
-3.81853
-3.95692
3.68195
2.5604
-4.13151
-0.675604
-4.63253
-6.45744
-1.77827
7.55543
-8.13696
7.45684
5.27982
-0.0884579
-4.62081
-0.618275
4.24368
0.284792
11.0235
-1.18513
-6.81612
8.00126
-4.6201
3.67411
1.0425
2.75333
2.47033
1.21119
-5.60494
-10.1893
-1.80886
-1.53377
-4.09718
0.387613
-2.20278
6.22465
-2.55054
3.92496
5.45072
6.38202
-1.99108
-4.3554
6.34815
-2.42319
3.95883
)
;

boundaryField
{
    wall-4
    {
        type            calculated;
        value           uniform 0;
    }
    velocity-inlet-5
    {
        type            calculated;
        value           uniform -3.75095;
    }
    velocity-inlet-6
    {
        type            calculated;
        value           uniform -5.62643;
    }
    pressure-outlet-7
    {
        type            calculated;
        value           nonuniform List<scalar> 8(6.30639 6.18922 6.61846 6.74809 6.62339 6.71715 6.63247 6.67817);
    }
    wall-8
    {
        type            calculated;
        value           uniform 0;
    }
    frontAndBackPlanes
    {
        type            empty;
    }
}


// ************************************************************************* //
