/*--------------------------------*- C++ -*----------------------------------*\
| =========                 |                                                 |
| \\      /  F ield         | OpenFOAM: The Open Source CFD Toolbox           |
|  \\    /   O peration     | Version:  2412                                  |
|   \\  /    A nd           | Website:  www.openfoam.com                      |
|    \\/     M anipulation  |                                                 |
\*---------------------------------------------------------------------------*/
FoamFile
{
    version     2.0;
    format      ascii;
    arch        "LSB;label=32;scalar=64";
    class       volVectorField;
    location    "10";
    object      U;
}
// * * * * * * * * * * * * * * * * * * * * * * * * * * * * * * * * * * * * * //

dimensions      [0 1 -1 0 0 0 0];

internalField   nonuniform List<vector> 
918
(
(0.985089 -0.0010839 0)
(0.00495156 2.96629 0)
(-0.00588399 1.67441 0)
(0.979501 0.00248953 0)
(-0.00177471 1.64832 2.31002e-22)
(-0.00700391 2.94875 -1.87592e-18)
(0.871339 1.15472 7.37129e-19)
(0.518828 0.262581 -8.75141e-21)
(0.999829 -0.000282147 0)
(0.0506518 1.4724 0)
(-0.00921852 1.50323 0)
(0.865213 -0.00227663 0)
(0.011327 2.92992 0)
(0.00128988 2.7951 0)
(-0.0203667 3.16457 1.09078e-18)
(-0.000224355 1.57151 -1.77481e-20)
(0.622509 0.118 5.42806e-19)
(0.235753 1.60934 5.15133e-19)
(0.966459 0.0104472 0)
(0.00137697 1.5617 0)
(0.204575 0.304805 -4.89217e-19)
(1.00163 -0.0049369 0)
(0.999955 -0.0098708 0)
(0.975567 -0.00570736 0)
(0.78195 -0.0283349 0)
(0.0223035 2.62432 0)
(-0.0153882 2.91015 6.49112e-19)
(-0.00841255 1.69464 0)
(-0.0102944 1.76753 0)
(-0.0108287 1.69381 0)
(0.00381551 1.79905 0)
(0.00212062 1.6645 -1.82934e-22)
(0.0021055 1.58171 0)
(-0.0206244 2.98757 -6.56384e-23)
(-0.0167299 3.00532 1.45829e-18)
(0.00212269 3.00022 0)
(0.902429 -0.000469983 0)
(0.370409 0.953052 2.09209e-20)
(0.836228 1.20131 -1.0501e-18)
(0.980607 1.03658 9.75545e-19)
(0.680732 1.31278 -1.63661e-19)
(0.726319 1.26551 9.31969e-19)
(0.561242 0.320826 8.53869e-21)
(0.555585 0.224095 0)
(1.19868 0.571296 0)
(0.508442 0.336979 3.95939e-20)
(0.477347 0.250065 -4.10855e-20)
(0.910892 -0.00478997 0)
(1.00007 0.000217455 0)
(0.999965 0.000184112 0)
(1.00474 -0.00770005 0)
(1.00067 -0.00080267 0)
(1.0001 -0.000183532 0)
(0.0255269 1.57124 -5.81113e-19)
(0.0292352 1.6069 0)
(0.0863703 1.5019 0)
(0.0123871 1.61235 0)
(0.0300352 1.44807 0)
(-0.00579888 1.60596 0)
(-0.013668 1.60474 0)
(-0.00872207 1.48484 0)
(-0.0153961 1.63206 0)
(-0.00978666 1.52091 0)
(0.928689 0.00323542 0)
(0.923259 0.00337755 0)
(0.871074 -0.00244032 0)
(0.918773 0.0102122 0)
(0.844621 0.00755269 0)
(0.0147538 3.00038 6.86812e-19)
(0.0116086 3.00795 0)
(0.00615283 3.00296 0)
(0.0136624 2.99735 7.66525e-24)
(0.00802938 2.95831 -1.02077e-18)
(0.0146215 2.98169 0)
(0.0109179 2.90335 0)
(0.0249266 2.93018 1.37855e-24)
(0.00380735 2.82552 0)
(0.0322731 2.91543 0)
(-0.00650152 2.74393 0)
(0.298835 3.54946 0)
(-0.132318 3.62963 0)
(0.132335 3.25375 1.01511e-18)
(-0.014394 2.99381 0)
(0.0116062 1.7661 0)
(-0.00174389 1.66182 1.751e-20)
(-0.000702131 1.57397 -3.08148e-20)
(0.683086 0.164538 -1.8636e-19)
(0.647111 0.0745766 -1.80086e-19)
(0.654651 0.195398 -5.60531e-19)
(0.614782 0.136224 -3.7634e-19)
(0.24217 1.27955 0)
(0.21777 1.62437 -5.46902e-19)
(0.390428 1.51875 9.17464e-19)
(0.986688 0.0128664 0)
(0.941349 0.0115381 0)
(1.00045 0.000563902 0)
(1.0025 0.00953018 0)
(1.00227 0.00959893 -9.9014e-19)
(0.991929 0.00902493 7.56161e-19)
(-0.00128275 1.65318 0)
(0.00276196 1.56514 0)
(-0.0106993 1.70884 0)
(-0.00651846 1.66784 0)
(0.000520597 1.56903 0)
(0.293815 0.318545 1.48733e-19)
(0.338412 0.271653 0)
(0.993407 -0.00803724 0)
(0.957148 -0.00512517 0)
(0.888843 0.0246466 0)
(0.857185 0.0204225 0)
(0.819193 -0.00433473 0)
(1.04146 0.00201516 0)
(0.816728 0.023195 0)
(0.72456 -0.0131967 7.27557e-19)
(-0.0342613 2.868 3.21065e-19)
(0.0438757 2.90783 0)
(0.0579087 2.88242 0)
(-0.00455118 2.69461 0)
(-0.0127824 2.98512 5.96449e-19)
(-0.01824 2.89556 0)
(-0.0154517 2.98803 -1.88766e-18)
(-0.0134719 2.92493 6.52563e-19)
(-0.00628229 1.79945 0)
(-0.00157147 1.79138 0)
(0.000459301 1.66907 -4.45029e-22)
(0.000674834 1.66108 0)
(0.000202213 1.57099 0)
(0.953616 0.0036408 0)
(0.90388 0.00484179 0)
(0.8802 -0.0078687 0)
(0.951275 -0.00227265 0)
(0.896557 -0.00324568 0)
(0.502763 1.13294 -3.46147e-20)
(0.554004 1.1837 0)
(0.289406 0.872999 1.14027e-20)
(0.251182 0.730517 0)
(0.94619 1.07811 -2.82324e-19)
(1.071 0.884591 5.86271e-19)
(0.356924 1.52892 0)
(0.516699 1.41996 0)
(0.565798 1.37655 0)
(0.116566 0.0590024 -1.42538e-19)
(0.592716 0.292418 0)
(0.584058 0.210153 1.09107e-19)
(1.04367 0.934961 0)
(1.1171 0.783528 0)
(1.14167 0.73262 -5.09857e-19)
(1.18134 0.626374 0)
(1.23448 0.417444 6.31013e-20)
(0.950335 0.000441372 0)
(0.950909 -0.00394721 0)
(0.900733 -0.000342585 0)
(0.985248 -0.00897479 0)
(0.967331 -0.00686011 0)
(0.935303 -0.00509226 0)
(1.00004 0.00218738 0)
(1.00094 0.00174789 0)
(0.999814 0.000836267 0)
(0.017637 1.64327 3.16078e-19)
(0.0592186 1.54446 0)
(0.000226216 1.6699 2.43902e-19)
(0.0100012 1.57084 -4.38494e-19)
(0.0699943 1.63754 -4.29759e-19)
(0.0338811 1.64071 0)
(0.125038 1.57001 0)
(0.0064431 1.59693 0)
(0.0188995 1.43955 0)
(-0.00697237 1.68859 -1.32011e-21)
(0.00368984 1.61547 0)
(-0.00939795 1.6882 -6.75315e-20)
(-0.00500255 1.60075 -6.97928e-21)
(-0.00503132 1.59329 0)
(-0.0162884 1.59746 0)
(-0.00202206 1.45543 0)
(-0.0131589 1.64707 0)
(-0.00664491 1.53643 0)
(0.988458 0.0124577 0)
(0.946143 0.00320211 0)
(0.973788 0.00652064 0)
(0.922275 0.00283233 0)
(0.88008 -0.00183217 0)
(0.941697 0.00599407 0)
(0.933922 0.00384862 0)
(0.875251 0.00395139 0)
(0.00576932 3.06491 -6.04629e-21)
(0.0159652 3.05796 0)
(0.0145991 2.96892 0)
(0.00840593 2.87624 0)
(0.913034 3.95409 0)
(1.22593 3.28293 9.94337e-19)
(0.0692569 3.08753 0)
(-0.0266117 2.91414 0)
(0.00170859 1.78666 0)
(0.0102798 1.76584 0)
(0.00811452 1.76809 0)
(0.00396817 1.78538 4.08735e-21)
(0.0138373 1.76959 0)
(0.00794944 1.77952 0)
(-0.000788782 1.58198 4.31518e-21)
(-0.00298674 1.67875 3.8144e-20)
(-0.00127295 1.66923 3.1474e-20)
(-0.00245095 1.57514 0)
(0.703403 0.126441 2.73625e-19)
(0.667061 0.0525949 -2.64892e-19)
(0.210447 1.36972 0)
(0.316167 1.12796 -2.71537e-19)
(0.13893 1.4591 -7.8625e-19)
(0.173139 1.35907 7.85506e-19)
(0.891508 0.00848479 0)
(0.961934 0.0134022 0)
(0.974726 0.0148182 0)
(0.918297 0.0134306 0)
(-0.00748514 1.6553 0)
(-0.00191844 1.65785 0)
(0.000978001 1.55348 0)
(0.46449 0.352438 3.6143e-19)
(0.402053 0.336907 -4.47061e-19)
(0.403991 0.251581 0)
(1.16189 0.0842506 -5.20486e-21)
(1.14845 0.0372536 0)
(1.07282 0.0382042 0)
(0.9885 0.0040754 0)
(0.732702 0.103481 0)
(0.768327 0.0577395 -1.16569e-18)
(0.699653 0.0306439 4.4664e-19)
(0.0102989 2.98271 4.16141e-19)
(-0.0322871 2.86838 4.85484e-20)
(0.00364982 3.0506 -1.30636e-20)
(0.0198142 3.04338 4.68675e-19)
(-0.0150199 2.99667 2.16917e-20)
(-0.0130763 2.94947 -8.76098e-23)
(-0.0174049 3.012 -4.10474e-19)
(0.0150064 3.02364 2.98143e-19)
(0.0074699 3.03724 -4.66433e-19)
(0.970558 0.00502357 0)
(0.964598 0.00626088 0)
(0.911531 0.00510799 0)
(0.949159 0.0102545 0)
(0.941284 0.000137644 0)
(0.878563 0.00281434 0)
(0.945119 -0.00158065 0)
(0.938073 -0.00399535 0)
(0.884719 -0.00869 0)
(0.717072 1.40135 2.71534e-19)
(0.747923 1.50772 0)
(0.124467 0.0880087 -2.1767e-20)
(0.0739045 0.451354 -1.18115e-19)
(0.142024 0.625275 -7.33084e-20)
(0.195285 0.425742 1.49081e-19)
(0.427476 0.670413 9.08407e-19)
(0.205799 0.285587 3.06931e-19)
(0.646022 0.229337 -3.86379e-19)
(0.622086 0.266914 9.94713e-20)
(0.602496 0.176022 2.09625e-19)
(1.22427 0.467398 3.07152e-19)
(1.2466 0.261712 3.25087e-19)
(-0.00587415 1.6697 2.0489e-19)
(0.00998653 1.57727 0)
(1.02505 0.0215837 0)
(1.00203 0.0105309 0)
(0.960528 -0.00306334 0)
(0.0108471 3.07496 0)
(0.0200417 2.94394 8.0692e-19)
(0.0165184 2.95647 0)
(0.00600534 2.85082 -8.00649e-19)
(0.00601201 3.09095 1.91311e-19)
(0.00744153 3.08208 0)
(0.782254 1.80581 -2.27111e-19)
(1.23235 2.47927 6.19565e-19)
(0.761528 1.9446 -1.44392e-18)
(0.0215715 2.98739 -2.97871e-19)
(0.0364626 3.01198 0)
(-0.0305823 2.88534 0)
(-0.00508011 1.67417 -7.43823e-21)
(-0.00262677 1.6793 -4.61545e-21)
(-8.90555e-05 1.58985 -6.14258e-21)
(0.273523 1.24728 8.33703e-19)
(0.340189 0.984818 -5.63506e-19)
(0.041049 1.60088 5.28359e-19)
(0.078692 1.53995 -6.46718e-19)
(0.103964 1.45592 7.63879e-20)
(0.00270853 3.11882 -1.12518e-18)
(0.0142273 3.11867 1.21418e-18)
(-0.00819094 2.98142 5.14992e-19)
(-0.00297531 2.97825 -4.52474e-19)
(-0.0212658 2.88256 -5.24503e-19)
(0.00869765 3.10018 -1.40272e-18)
(0.00250108 3.1049 1.37599e-18)
(0.391083 0.505683 0)
(0.232722 0.427176 4.14504e-19)
(0.0640536 -0.0413259 -1.37859e-19)
(0.44304 0.831064 9.17543e-19)
(0.322977 0.539124 -1.38158e-18)
(1.24203 0.172707 -6.12267e-20)
(1.24464 0.31372 0)
(1.23096 0.122723 1.29203e-19)
(0.00549736 1.68589 -1.69219e-21)
(0.00231448 1.66962 0)
(0.0106639 1.59437 0)
(0.303366 1.11117 -2.92031e-19)
(0.338595 0.988489 -6.46997e-19)
(0.343562 0.806395 1.16453e-18)
(1.00546 -0.00931558 0)
(1.00652 -0.00644625 1.83424e-19)
(-0.00469032 1.79755 0)
(-0.00855278 1.80228 0)
(1.00253 0.00344445 1.531e-21)
(1.00169 0.00957539 3.71188e-19)
(0.00376325 1.78641 -5.22778e-21)
(0.00232442 1.78663 0)
(0.041997 3.1862 9.01982e-20)
(0.384435 3.49635 0)
(1.10425 0.643705 7.30109e-20)
(1.0135 0.0136092 -2.09365e-21)
(1.00727 -0.0168839 0)
(1.0019 5.09591e-05 3.17022e-22)
(0.0160452 1.78886 0)
(0.0372286 1.79147 0)
(-0.0211598 1.78858 0)
(0.00455964 1.79326 9.0034e-20)
(-0.00229311 1.79702 4.47148e-20)
(0.999789 0.0102208 2.21296e-21)
(1.04452 0.0126992 0)
(1.07378 0.0238988 0)
(0.00584223 1.77268 0)
(0.00147106 1.78819 0)
(-0.00342352 1.79593 0)
(0.0507642 1.68574 -3.49322e-19)
(1.01212 -0.0119668 0)
(1.0083 -0.0217073 0)
(1.00477 0.000566894 2.29251e-19)
(1.00402 -0.00468201 -2.73338e-19)
(1.00178 -0.00315185 0)
(-0.00327242 1.78127 0)
(-0.00124181 1.79507 0)
(-0.00123059 1.78918 0)
(-0.00397878 1.79693 0)
(-0.00445511 1.79357 0)
(-0.00503772 1.79612 0)
(1.02536 0.00888702 0)
(1.02086 -0.000556565 -8.79534e-22)
(0.747062 1.19313 5.33685e-19)
(1.00229 0.0015068 -2.30435e-19)
(1.00382 0.00569662 2.72831e-19)
(1.00125 0.00225301 0)
(1.01138 0.0110932 2.22333e-19)
(1.00706 0.0125955 -2.7648e-19)
(1.00149 0.0143061 0)
(0.00297504 1.78887 0)
(0.00298306 1.78686 1.57201e-20)
(0.00377389 1.78629 -1.20028e-20)
(1.16879 0.254638 -8.90393e-20)
(1.10741 0.0830965 0)
(0.0673075 3.08109 -5.11663e-19)
(0.0698759 2.85101 -4.22614e-20)
(0.148645 3.20787 7.32525e-19)
(0.139367 3.23611 9.87681e-21)
(0.142993 3.25008 0)
(0.0239846 3.13982 1.08736e-19)
(0.0828189 3.16653 5.00854e-19)
(0.0767004 3.19431 -2.1114e-19)
(0.0310809 3.12672 0)
(0.701247 0.347163 0)
(0.604643 0.402115 0)
(1.0776 0.675005 -2.72707e-19)
(1.06561 0.805229 -1.01729e-19)
(1.1238 0.546505 0)
(1.16781 0.50827 0)
(1.01387 0.0146988 -4.29615e-19)
(1.01039 0.0197986 -1.8601e-21)
(1.00695 -0.0113496 0)
(1.00793 -0.00381332 0)
(1.00677 0.000968674 0)
(1.01318 0.00491053 0)
(1.00495 0.00150552 0)
(1.01614 0.00919195 0)
(1.00814 0.00608258 0)
(1.00569 0.00307097 0)
(0.011168 1.78952 0)
(0.00731289 1.79676 0)
(0.0167789 1.78926 0)
(0.0145409 1.77346 0)
(0.0381582 1.79561 0)
(0.0646656 1.7999 -3.35291e-19)
(0.0143223 1.80363 0)
(0.00743155 1.79338 1.66582e-19)
(0.0199204 1.79778 -1.6467e-19)
(-0.0198489 1.79168 0)
(-0.0145013 1.79303 0)
(-0.0215634 1.7885 0)
(-0.0188424 1.79014 0)
(-0.00409764 1.79487 -5.39415e-20)
(-0.00591386 1.79729 6.46022e-20)
(-0.00528049 1.79825 7.89015e-20)
(-0.0062894 1.79681 0)
(-0.00334708 1.79944 -1.00951e-19)
(-0.00371122 1.79703 -5.79935e-20)
(-0.00314766 1.79584 4.36769e-20)
(-0.0055943 1.79515 -8.40049e-20)
(-0.00547516 1.797 -9.73919e-20)
(1.00888 0.016136 4.07927e-19)
(1.00852 0.00552028 2.66493e-21)
(1.00022 0.022219 -4.22262e-19)
(0.98667 0.0207282 5.44061e-19)
(1.03817 0.017129 0)
(1.04046 0.00812503 0)
(1.05915 0.0324561 0)
(1.04437 0.0122728 0)
(1.05972 0.0118945 0)
(1.09468 0.0655311 0)
(1.07335 0.0416281 0)
(1.09623 0.0315312 0)
(0.00832226 1.77463 -1.5896e-21)
(0.00381043 1.76756 0)
(0.0073834 1.76968 0)
(-0.00438894 1.79154 1.83366e-20)
(-0.00528645 1.78992 -8.60623e-22)
(-0.00839933 1.77603 1.50592e-20)
(-0.00445158 1.78477 -1.52082e-20)
(-0.00607133 1.79424 0)
(-0.00446551 1.79469 0)
(-0.00415182 1.79375 0)
(-0.00489968 1.79536 0)
(-0.00512993 1.79547 0)
(0.117806 1.59329 6.45272e-19)
(0.222725 1.50443 2.91326e-19)
(0.430942 1.71731 -1.99085e-19)
(0.199644 1.73121 5.33713e-19)
(0.0591858 2.10779 1.33945e-19)
(1.00857 -0.0212855 0)
(1.01163 -0.0229699 0)
(1.00575 -0.0275303 0)
(1.0109 -0.00446129 0)
(1.0073 -0.0050478 0)
(1.00483 -0.00640739 0)
(1.00946 -0.0111467 0)
(1.01023 -0.016079 0)
(1.02251 -0.000669803 3.99362e-19)
(1.02133 0.000215381 -5.10985e-19)
(1.02113 0.00223789 -3.94734e-19)
(1.01694 0.00433927 4.85205e-19)
(0.735749 1.21553 0)
(0.609039 1.24104 6.31551e-19)
(0.827326 1.14294 3.83073e-19)
(0.87173 1.09395 -5.09692e-19)
(1.16438 2.58604 -3.62694e-19)
(0.822081 0.12665 2.7523e-19)
(1.10886 0.0895578 0)
(1.15587 0.173735 7.89922e-20)
(1.14412 0.153296 3.83171e-21)
(0.963537 0.134652 0)
(0.162186 2.99419 3.84886e-20)
(0.134707 2.88631 -6.3205e-19)
(0.0622256 2.33136 4.78331e-19)
(0.134587 0.177909 -1.90388e-19)
(0.327986 3.4264 -4.5496e-19)
(0.19108 3.33062 0)
(0.232252 3.36807 5.92536e-19)
(0.247705 3.06644 -4.97077e-19)
(0.341261 3.21316 0)
(0.00886401 3.12029 2.63797e-20)
(0.0192718 3.12958 -3.41188e-19)
(0.0178337 3.12495 5.02209e-19)
(0.0404621 3.14022 0)
(0.03946 3.15319 0)
(1.20823 2.58538 0)
(0.515468 0.840239 -2.20116e-19)
(1.00384 0.970051 -2.16645e-19)
(0.949101 0.99965 0)
(0.838286 0.89785 6.58834e-20)
(1.03876 0.847846 3.2582e-20)
(0.407817 0.48773 -5.1171e-19)
(0.730681 0.34227 -2.33095e-20)
(0.740398 0.29897 2.13262e-19)
(0.606574 0.436016 1.69912e-20)
(0.570845 0.428355 -6.9633e-19)
(0.696868 0.371645 0)
(0.676611 0.426517 3.50235e-19)
(0.685581 0.424404 0)
(0.647327 0.416975 0)
(0.664876 0.361425 0)
(0.732666 0.606753 1.20681e-19)
(1.1573 0.261012 -5.52183e-20)
(1.15733 0.390851 0)
(1.18382 0.361129 0)
(0.790793 0.220583 3.20845e-19)
(0.783831 0.544891 -1.78032e-19)
(0.686074 0.502444 -2.84449e-19)
(0.873231 0.408128 -2.66606e-19)
(1.01971 0.00211081 2.74807e-19)
(1.01492 0.015123 -2.78339e-19)
(1.01507 0.0125021 0)
(1.02064 0.0122256 0)
(1.01104 0.00701424 -2.50815e-19)
(1.01239 0.00832524 2.47963e-19)
(1.0225 0.00362427 0)
(1.02379 -0.000776305 0)
(1.01659 0.00880396 0)
(1.01953 0.013776 0)
(1.03107 0.00236051 0)
(1.02758 0.00218727 0)
(0.00328898 1.80141 0)
(0.00618382 1.79481 0)
(0.0137716 1.79566 3.40304e-20)
(0.0355255 1.70775 1.54742e-19)
(0.0175788 1.77797 3.10505e-19)
(0.0189428 1.75195 -1.50058e-19)
(0.00497365 1.79698 0)
(0.00944237 1.81404 -9.69758e-20)
(0.0169526 1.81059 0)
(0.0896615 2.05348 -1.90857e-19)
(0.152835 1.91286 5.39401e-19)
(-0.00521693 1.83266 8.7372e-20)
(-0.0295296 1.74003 7.05335e-20)
(-0.0122267 1.77641 5.66927e-20)
(-0.0751033 1.73898 7.62027e-20)
(0.00896471 1.86346 1.00737e-19)
(-0.00628206 1.89012 -1.65455e-20)
(0.00409705 1.80156 -4.59565e-20)
(0.00449133 1.79375 0)
(0.00350984 1.78423 1.91253e-19)
(0.00487903 1.79153 0)
(0.000471735 1.7946 -1.83373e-19)
(0.00217787 1.79377 0)
(-0.0151397 1.78715 -3.97401e-20)
(-0.00107514 1.79584 0)
(-0.00706339 1.79595 0)
(-0.0175753 1.78523 4.50402e-20)
(0.00909044 1.79455 -9.07358e-22)
(0.0203109 1.79766 1.89747e-19)
(0.0186092 1.7965 1.32058e-21)
(-0.0100989 1.78411 3.41264e-20)
(-0.00972562 1.78559 -2.12927e-20)
(-0.015607 1.79509 0)
(-0.0129664 1.79637 0)
(0.0104845 1.79694 1.06211e-19)
(0.0102299 1.79663 7.02777e-20)
(0.0050442 1.79357 -1.03983e-19)
(0.0138662 1.7999 0)
(-0.00750174 1.78064 -6.25958e-20)
(-0.00607736 1.78931 2.76827e-20)
(-0.00948445 1.78838 -8.91659e-21)
(-0.00739998 1.78337 -4.25446e-20)
(-0.00653125 1.79213 -1.46993e-20)
(-0.00545931 1.79469 6.93438e-20)
(1.01626 0.00695626 -2.62174e-19)
(1.01325 0.00675159 2.73271e-19)
(1.01096 0.00488172 0)
(0.992259 0.0496275 3.90161e-19)
(0.985163 0.0306497 -4.58387e-19)
(0.961736 0.0268912 5.20287e-19)
(0.996247 0.0931532 -5.00885e-20)
(1.02556 0.00632867 0)
(1.03094 0.0105424 2.24388e-19)
(1.03233 0.00477363 -2.22512e-19)
(1.03265 0.0384738 -1.24885e-20)
(1.02933 0.0231565 1.11133e-19)
(1.01209 0.0378426 0)
(1.0052 0.0343202 -4.07023e-20)
(1.00688 0.0246759 0)
(1.01183 0.0190965 0)
(1.02087 0.00492983 0)
(1.01839 0.00401265 0)
(1.01014 0.0244117 8.55471e-20)
(1.01576 0.0168811 -1.93377e-19)
(1.0131 0.0349453 -8.71445e-20)
(1.00946 0.0312125 -9.902e-20)
(1.00928 0.0361407 1.79672e-19)
(1.04541 0.0380438 0)
(1.03425 0.0858974 0)
(-0.00604608 1.77868 -2.13488e-20)
(-0.00497164 1.77072 -2.03213e-21)
(-0.00600528 1.77288 0)
(-5.01058e-05 1.78306 2.02785e-20)
(0.00151176 1.77719 3.46525e-21)
(-0.000704762 1.78168 -3.47815e-21)
(-0.00445367 1.79654 5.11048e-20)
(-0.00768783 1.79252 -3.13772e-21)
(-0.00690978 1.79179 1.64686e-20)
(-0.00563632 1.79352 -2.67428e-20)
(-0.00468603 1.79388 -2.55977e-21)
(-0.00842756 1.78708 2.64039e-22)
(-0.0109535 1.77635 2.55828e-20)
(-0.0318739 1.55296 -3.06643e-19)
(-0.0937369 1.75183 -1.72316e-19)
(0.586559 1.25286 -6.0762e-19)
(0.33632 1.38527 -2.79031e-19)
(0.464308 1.35826 0)
(0.45872 1.74497 2.1722e-19)
(0.530709 1.58324 2.97824e-19)
(0.271726 1.72258 7.26393e-20)
(0.267793 1.79653 -6.32465e-19)
(0.329714 1.88978 5.73358e-19)
(0.400673 1.70947 0)
(0.335375 1.70833 -4.52332e-19)
(0.0939579 1.7807 8.94404e-19)
(0.163676 1.7601 -6.16193e-20)
(0.103379 1.77183 -1.22991e-18)
(0.895184 2.31837 2.2794e-20)
(0.714576 1.92298 0)
(1.01823 -0.0116012 9.25335e-21)
(1.01267 -0.0189408 -7.34714e-21)
(1.01597 -0.0152925 -1.31117e-19)
(1.03183 -0.0115139 1.35785e-19)
(1.03046 -0.0106467 0)
(0.704434 1.02197 0)
(0.786502 0.963372 0)
(0.751759 1.06651 0)
(0.734535 1.01615 0)
(1.18328 2.6297 1.23555e-20)
(1.03424 2.35212 0)
(0.982173 2.54594 -7.41348e-21)
(0.580615 2.69904 0)
(0.871182 2.76846 2.91835e-19)
(0.933851 2.74023 0)
(0.833866 0.154022 0)
(0.807826 0.154385 7.98549e-20)
(0.885388 0.123696 4.03946e-19)
(0.845285 0.115136 -1.60046e-19)
(0.843436 0.0756683 -4.90405e-19)
(1.00708 0.200192 -2.38486e-19)
(0.917428 0.263581 -1.6771e-20)
(0.892981 0.255313 3.68199e-19)
(0.949492 0.167999 2.70517e-19)
(0.914554 0.153738 -5.05633e-19)
(0.898129 0.154683 6.5663e-20)
(0.935685 0.208963 -1.27781e-19)
(0.907482 0.173592 0)
(0.969011 0.148243 -2.40599e-19)
(0.994633 0.155912 0)
(0.986373 0.169018 0)
(1.04335 0.104215 7.52257e-20)
(1.01243 0.152516 -1.30196e-20)
(1.00452 0.211074 -1.18127e-19)
(1.05292 0.189138 0)
(1.0037 0.0264135 1.9949e-19)
(1.00469 0.0340303 2.40077e-19)
(1.00836 0.0303254 -1.97467e-19)
(1.00803 0.0412026 -1.61198e-19)
(1.00027 0.0521593 -2.74203e-19)
(0.950878 0.127728 0)
(0.984012 0.092301 0)
(0.959034 0.038321 -1.87888e-19)
(0.919509 0.0512134 7.96964e-20)
(1.00347 0.0848898 2.29187e-19)
(1.00638 0.104885 -2.33881e-19)
(1.01667 0.139665 2.14533e-19)
(1.00825 0.129813 0)
(1.01665 0.0832886 0)
(1.00531 0.0666562 -9.74603e-20)
(1.00868 0.0741491 -1.83939e-19)
(0.924644 1.20211 -1.43908e-19)
(0.869983 1.41032 1.67149e-19)
(1.1867 2.69771 2.59515e-20)
(1.21465 3.05491 -6.17952e-20)
(1.24967 2.70317 3.99205e-19)
(1.27779 2.68023 -2.83862e-19)
(1.2057 2.32999 -2.38759e-21)
(1.20673 2.95546 1.31341e-19)
(1.23075 2.92516 -1.15108e-19)
(1.20364 3.21165 -2.50192e-19)
(1.36434 2.93656 3.38591e-19)
(1.35167 2.86043 0)
(0.5026 0.857311 -1.51337e-20)
(0.174351 1.33564 3.17059e-19)
(0.527537 0.540481 3.40488e-19)
(0.354292 0.338232 3.77971e-19)
(0.567733 0.44713 3.88766e-19)
(0.539617 0.500855 -6.18151e-19)
(0.538902 0.513828 5.05975e-19)
(0.519372 0.479647 -2.04175e-19)
(0.494092 0.417815 4.75446e-19)
(0.797422 0.247911 5.49883e-19)
(0.763456 0.288052 0)
(0.772302 0.255982 1.16558e-20)
(0.662378 0.510927 1.81361e-19)
(0.655155 0.480108 -6.66024e-19)
(0.589188 0.50236 1.79913e-20)
(0.616424 0.461824 0)
(0.614638 0.747075 1.48616e-19)
(0.799843 0.736521 3.72674e-20)
(0.741511 0.81481 -5.33128e-20)
(0.838406 0.76764 -1.14628e-20)
(0.893821 0.81141 1.66387e-20)
(0.901994 0.816236 -1.70129e-20)
(0.773089 0.62968 -2.03698e-19)
(0.864956 0.712801 1.06409e-20)
(0.939137 0.701714 0)
(0.919826 0.66388 -9.22208e-21)
(0.947948 0.293988 5.65002e-20)
(1.065 0.263711 1.17927e-21)
(0.9931 0.230388 9.79835e-20)
(0.929825 0.332167 -1.3055e-19)
(0.980685 0.406888 0)
(1.0389 0.393829 0)
(0.837823 0.339984 1.70921e-21)
(0.85063 0.27134 0)
(0.853877 0.250246 1.88938e-19)
(0.8622 0.260422 -3.61449e-21)
(0.865747 0.409858 7.28653e-19)
(0.832666 0.475648 1.81165e-19)
(0.827258 0.435572 -2.40322e-19)
(0.755332 0.433862 -2.58172e-19)
(0.745118 0.43109 1.74047e-19)
(0.725476 0.419856 -1.71012e-19)
(1.02118 0.0135549 2.18842e-19)
(1.03007 0.00374127 0)
(1.03294 0.00148565 1.45257e-19)
(1.01943 0.00912895 -3.26363e-21)
(1.0306 0.00409565 1.55535e-19)
(1.02949 0.00343108 -3.28366e-19)
(1.02594 -0.000995496 0)
(1.02392 -4.07707e-05 -6.95963e-20)
(1.02971 0.00300505 1.6953e-19)
(1.02164 0.00763602 -8.81296e-20)
(1.02333 0.00598926 6.42212e-20)
(-0.00954552 1.78998 0)
(-0.00795397 1.79387 0)
(0.00920638 1.79671 0)
(-0.00257845 1.79159 0)
(0.00343211 1.79998 6.40375e-21)
(0.00415127 1.79807 -2.42308e-22)
(0.00417318 1.80961 -3.11672e-20)
(-0.00154522 1.80125 -3.19681e-20)
(0.0143879 1.80253 -5.7923e-20)
(0.0104581 1.80228 4.30764e-20)
(0.0112333 1.80481 -1.52925e-20)
(0.00856057 1.8115 -8.61448e-21)
(0.00831254 1.8051 1.01792e-21)
(0.00638026 1.80172 5.65489e-21)
(0.00462071 1.78494 -2.13253e-19)
(0.0143929 1.78832 0)
(0.0188595 1.78031 1.14413e-19)
(0.0164369 1.79933 7.90447e-20)
(0.0474 1.83612 -8.51579e-20)
(0.104035 1.80576 0)
(0.109851 1.80478 -6.31071e-19)
(0.138811 1.86241 4.3026e-19)
(0.0511045 1.81396 -3.00902e-19)
(0.0323932 1.78916 1.24432e-19)
(0.0234168 1.78759 0)
(0.00698049 1.79354 -1.41181e-19)
(0.00202981 1.79049 -1.7492e-19)
(0.00230663 1.7937 0)
(0.0129576 1.79866 -5.05112e-21)
(0.00824683 1.80022 6.97798e-20)
(-0.0186572 1.7868 5.72453e-21)
(-0.0181145 1.78748 -1.01004e-19)
(-0.0156252 1.7807 2.62359e-20)
(-0.0164634 1.77491 3.90258e-20)
(-0.0147122 1.78607 0)
(-0.0124867 1.78141 0)
(-0.00705734 1.79556 2.68958e-20)
(-0.00591802 1.78439 -8.62293e-21)
(-0.0110643 1.78282 0)
(-0.0114876 1.79655 2.23349e-20)
(-0.0092638 1.79647 -4.15545e-20)
(1.01841 0.0137877 0)
(1.02077 0.0125793 -2.06235e-20)
(1.01586 0.0153655 -1.54063e-19)
(1.01763 0.0215884 0)
(1.01794 0.0234318 0)
(1.01983 0.00661763 -5.01774e-21)
(1.02078 0.0067112 2.57283e-19)
(1.01847 0.00763642 3.12989e-19)
(1.01849 0.00732498 0)
(1.01756 0.00750668 0)
(1.01703 0.0125371 1.56722e-19)
(1.01617 0.00994909 0)
(1.01827 0.0101078 0)
(-0.0127056 1.7806 0)
(-0.0115801 1.77329 2.62836e-21)
(-0.0115887 1.77332 1.35429e-20)
(-0.00744752 1.78347 0)
(-0.0103895 1.77827 1.92518e-20)
(-0.0089608 1.78454 -8.66211e-21)
(-0.00602373 1.78699 0)
(0.0393103 2.3683 0)
(-0.188718 1.81861 3.81446e-19)
(-0.103881 2.07328 0)
(-0.0709216 1.60717 -4.08076e-19)
(0.14754 1.21436 0)
(0.0211994 1.47061 3.55496e-19)
(1.04029 2.85733 2.60412e-21)
(0.908449 2.48874 -2.4967e-20)
(0.887958 2.29713 -5.14164e-19)
(0.742915 2.05227 2.02959e-19)
(0.683662 2.60895 0)
(0.806119 2.6581 0)
(0.863183 2.26656 0)
(0.86 2.04743 -6.10079e-19)
(0.279348 2.62167 -1.84399e-19)
(0.504912 2.66453 -4.37159e-20)
(0.531578 2.66315 3.34852e-20)
(0.544995 1.74319 0)
(0.656894 1.87286 0)
(0.644147 1.69013 -3.2324e-19)
(0.451645 2.42802 0)
(0.727226 1.05411 0)
(0.495969 0.970924 -9.28832e-20)
(0.573103 0.944883 -6.73751e-21)
(0.751412 1.06993 0)
(0.561933 1.15972 1.51143e-19)
(0.787164 0.875666 2.44941e-20)
(0.804147 0.984526 0)
(0.770357 0.915516 -8.08435e-20)
(0.676904 1.06933 0)
(0.63927 0.960609 0)
(1.19687 2.77405 3.06424e-20)
(1.1884 2.8072 1.11669e-19)
(1.14781 2.335 -2.60866e-19)
(1.11417 2.4349 9.62349e-20)
(1.16833 2.79388 0)
(1.09934 2.81369 -1.48229e-19)
(1.05411 2.52515 -7.06855e-20)
(0.893266 2.25467 -1.96582e-20)
(0.783982 1.77212 0)
(0.816571 1.07263 1.25154e-19)
(0.770029 1.02058 0)
(0.856533 0.192123 0)
(0.824886 0.172283 0)
(0.77428 0.18844 0)
(0.861284 0.208815 -2.95428e-19)
(0.810338 0.21927 1.85335e-19)
(0.920434 0.0499647 -1.58283e-19)
(0.917885 0.0918527 0)
(0.888251 0.103455 7.62646e-20)
(0.880833 0.0631833 3.05632e-19)
(0.887445 0.0504172 -1.88376e-19)
(1.13963 3.33976 -9.40832e-19)
(1.19303 3.259 0)
(1.13798 3.37857 -1.92554e-18)
(0.623439 3.54464 1.63517e-18)
(0.843613 3.14564 3.79737e-19)
(0.488133 0.90438 2.59462e-19)
(0.399937 0.964822 0)
(0.323477 0.554914 -7.65522e-20)
(0.381622 0.69872 -3.56213e-19)
(0.510457 0.522467 -1.06163e-19)
(0.491867 0.552354 1.18511e-19)
(0.599637 0.515915 2.54692e-19)
(0.62205 0.539377 0)
(0.597194 0.608703 0)
(0.550785 0.54857 0)
(0.920878 0.577996 -5.35482e-20)
(0.832513 0.518249 -1.75023e-19)
(0.859422 0.565428 7.71495e-20)
(0.889921 0.490304 -1.30251e-19)
(1.00774 0.462583 0)
(0.9962 0.539384 -3.91792e-21)
(0.782639 0.385092 -3.86738e-19)
(0.790715 0.369449 5.78686e-19)
(0.760716 0.391684 3.03127e-19)
(0.759556 0.362094 -3.42388e-19)
(0.827178 0.304123 -2.46162e-19)
(0.79587 0.311387 3.03429e-19)
(1.02768 0.00785586 -1.65985e-19)
(1.02662 0.00772424 3.43538e-19)
(1.02232 0.0143265 2.00349e-19)
(1.02264 0.0138366 -2.35078e-19)
(1.01598 0.0146846 0)
(1.02097 0.00809435 -4.05478e-19)
(0.0128206 1.79936 2.66568e-20)
(0.0110876 1.798 0)
(0.00948873 1.79189 2.32247e-19)
(0.0126382 1.79968 -2.17768e-19)
(0.00414229 1.80201 5.82232e-20)
(0.0058028 1.79919 0)
(-0.0100666 1.78 0)
(-0.0113908 1.77835 -1.10292e-20)
(-0.0118452 1.77692 9.47944e-21)
(-0.011282 1.77731 2.49162e-21)
(-0.0114115 1.77964 -1.9511e-20)
(-0.0102064 1.7804 -3.0469e-20)
(0.531802 1.91683 1.10109e-18)
(0.262489 1.98753 1.2633e-18)
(0.0138249 1.59531 7.55348e-19)
(0.00533558 2.13519 -4.85927e-20)
(0.610251 1.00842 0)
(0.30408 1.13544 6.1963e-19)
(0.396661 1.0463 -6.06582e-19)
(0.154237 1.1053 -7.38524e-19)
(0.463218 1.16925 0)
(0.65133 0.967858 0)
(0.197392 2.55346 2.74592e-19)
(0.368521 2.19472 1.30817e-18)
(0.43323 2.34543 -8.27252e-19)
(0.384598 2.10875 -1.80087e-19)
(0.187531 2.30541 2.60773e-19)
(0.302979 2.00021 -6.95564e-19)
(0.914903 2.52172 3.20746e-19)
(0.94274 2.48353 0)
(0.850162 2.27469 1.26435e-19)
(1.04944 2.81949 0)
(1.0722 2.8236 0)
(0.566207 2.30612 1.51411e-19)
(1.02136 3.1558 4.15079e-19)
(0.895204 3.04823 -3.50564e-19)
(0.293402 1.0054 0)
(0.28499 0.843394 -1.50414e-19)
(0.431085 0.816011 -5.5228e-19)
(0.313378 2.0908 0)
(0.464563 2.82496 -2.65653e-19)
(0.388475 2.60151 0)
(0.656351 0.656826 -3.03837e-19)
(0.701871 0.663655 3.7137e-19)
(0.732579 0.611607 2.63921e-19)
(0.611931 0.628191 4.4329e-20)
(0.666478 0.580016 -1.80467e-19)
(0.98351 2.80448 -3.15111e-19)
(1.03758 2.79227 2.30106e-19)
(0.556297 2.1392 2.48998e-19)
(0.587884 1.77215 -2.05212e-19)
(0.770479 1.87797 -7.64996e-20)
(0.975339 2.47774 -1.06025e-19)
(0.999587 2.36855 -6.06084e-20)
(0.567819 1.8761 1.36921e-21)
(0.523107 1.40831 1.05182e-19)
)
;

boundaryField
{
    wall-4
    {
        type            noSlip;
    }
    velocity-inlet-5
    {
        type            fixedValue;
        value           uniform (1 0 0);
    }
    velocity-inlet-6
    {
        type            fixedValue;
        value           uniform (0 3 0);
    }
    pressure-outlet-7
    {
        type            zeroGradient;
    }
    wall-8
    {
        type            noSlip;
    }
    frontAndBackPlanes
    {
        type            empty;
    }
}


// ************************************************************************* //
