/*--------------------------------*- C++ -*----------------------------------*\
| =========                 |                                                 |
| \\      /  F ield         | OpenFOAM: The Open Source CFD Toolbox           |
|  \\    /   O peration     | Version:  2412                                  |
|   \\  /    A nd           | Website:  www.openfoam.com                      |
|    \\/     M anipulation  |                                                 |
\*---------------------------------------------------------------------------*/
FoamFile
{
    version     2.0;
    format      ascii;
    arch        "LSB;label=32;scalar=64";
    class       volVectorField;
    location    "7";
    object      U;
}
// * * * * * * * * * * * * * * * * * * * * * * * * * * * * * * * * * * * * * //

dimensions      [0 1 -1 0 0 0 0];

internalField   nonuniform List<vector> 
38
(
(1.20153 0.572922 0)
(1.04982 0.963732 0)
(1.12354 0.794628 0)
(1.14389 0.733422 -4.58671e-19)
(1.19069 0.632122 0)
(1.24628 0.420025 6.66408e-20)
(1.22982 0.469464 2.75888e-19)
(1.24911 0.256315 2.96446e-19)
(1.25423 0.307718 0)
(1.11508 0.633571 5.57167e-20)
(1.04471 0.640373 -2.13511e-19)
(1.05002 0.788341 3.38208e-19)
(1.11633 0.54213 0)
(1.16017 0.527442 0)
(0.947093 0.939312 -1.75563e-19)
(0.898983 0.976607 0)
(0.757131 0.922535 6.99777e-20)
(1.00417 0.821479 2.13111e-20)
(0.772344 0.552174 1.20466e-19)
(1.15803 0.261739 -4.75941e-20)
(1.14969 0.384709 0)
(1.1869 0.353028 0)
(0.815318 0.735571 6.22346e-21)
(0.83458 0.688881 -1.27746e-20)
(0.877217 0.794541 1.67327e-20)
(0.871042 0.767058 -1.71731e-20)
(0.79729 0.570576 -2.10106e-19)
(0.888594 0.637592 1.19769e-20)
(0.962245 0.656357 0)
(0.946486 0.635626 -1.77683e-20)
(1.07167 0.282681 2.19594e-20)
(1.02931 0.38098 0)
(0.609064 0.646006 3.49877e-19)
(0.693229 0.670363 1.368e-19)
(0.747869 0.666337 3.73252e-19)
(0.759445 0.593395 -3.6768e-19)
(0.647297 0.630021 -4.50226e-20)
(0.674133 0.598808 -1.95245e-19)
)
;

boundaryField
{
    wall-4
    {
        type            noSlip;
    }
    velocity-inlet-5
    {
        type            fixedValue;
        value           nonuniform List<vector> 0();
    }
    velocity-inlet-6
    {
        type            fixedValue;
        value           nonuniform List<vector> 0();
    }
    pressure-outlet-7
    {
        type            zeroGradient;
    }
    wall-8
    {
        type            noSlip;
    }
    frontAndBackPlanes
    {
        type            empty;
    }
    procBoundary6to7
    {
        type            processor;
        value           nonuniform List<vector> 2((0.663184 0.516 0) (0.548373 0.611758 0));
    }
    procBoundary6to8
    {
        type            processor;
        value           nonuniform List<vector> 5((0.998454 0.536612 -7.8306e-21) (0.789612 0.520041 -4.43708e-19) (0.844122 0.545552 8.96247e-20) (0.963912 0.563199 -1.02994e-19) (0.978255 0.387159 0));
    }
    procBoundary6to9
    {
        type            processor;
        value           nonuniform List<vector> 3((1.24466 0.121336 1.15922e-19) (1.15553 0.247542 -1.27069e-20) (0.981188 0.23808 1.13722e-19));
    }
    procBoundary6to19
    {
        type            processor;
        value           nonuniform List<vector> 4((0.710014 0.905072 4.07924e-20) (0.666272 0.684109 1.27339e-19) (0.743033 0.829021 2.13829e-20) (0.513995 0.733193 4.06219e-19));
    }
    procBoundary6to21
    {
        type            processor;
        value           nonuniform List<vector> 2((1.08014 0.902164 5.08095e-19) (0.833617 1.1105 -3.64176e-19));
    }
}


// ************************************************************************* //
