/*--------------------------------*- C++ -*----------------------------------*\
| =========                 |                                                 |
| \\      /  F ield         | OpenFOAM: The Open Source CFD Toolbox           |
|  \\    /   O peration     | Version:  2412                                  |
|   \\  /    A nd           | Website:  www.openfoam.com                      |
|    \\/     M anipulation  |                                                 |
\*---------------------------------------------------------------------------*/
FoamFile
{
    version     2.0;
    format      ascii;
    arch        "LSB;label=32;scalar=64";
    class       volVectorField;
    location    "1";
    object      U;
}
// * * * * * * * * * * * * * * * * * * * * * * * * * * * * * * * * * * * * * //

dimensions      [0 1 -1 0 0 0 0];

internalField   nonuniform List<vector> 
38
(
(0.0254849 1.65844 5.18616e-19)
(0.0320401 1.66281 -9.27251e-19)
(0.000620192 1.69594 4.098e-19)
(0.00326357 1.66763 0)
(-0.0123305 1.70342 0)
(0.0121489 1.69258 0)
(0.133136 1.72534 0)
(0.0581607 1.68399 3.54706e-19)
(0.0897994 1.76458 -3.68363e-19)
(0.236629 1.7288 -4.50308e-19)
(0.0705584 1.81816 0)
(0.252382 1.73448 3.97353e-19)
(0.123848 1.74068 -1.26903e-19)
(0.0318189 1.69399 -1.70188e-19)
(0.0475045 1.70971 0)
(-0.00340154 1.72337 4.29242e-19)
(-0.0342066 1.71187 0)
(0.0195521 1.71068 -3.98954e-19)
(0.00369091 1.68619 0)
(0.0632393 1.77161 4.46548e-19)
(0.0721816 1.69231 -1.91901e-19)
(0.0120299 1.68833 -4.63844e-19)
(0.0980777 1.68188 0)
(0.116519 1.71361 2.58001e-19)
(0.0139567 1.77949 1.6388e-19)
(0.176127 1.64297 -8.24529e-19)
(0.189805 1.67024 4.10198e-19)
(0.0461715 1.67235 -1.39555e-20)
(-0.0104317 1.65986 3.765e-19)
(-0.033424 1.64927 0)
(0.0480001 1.80322 1.01415e-20)
(0.0323245 1.76805 1.93934e-19)
(0.100279 1.68958 1.18958e-19)
(-0.0096037 1.73443 0)
(0.118357 1.77031 7.27512e-19)
(0.0408243 1.73058 -6.50439e-19)
(0.0552549 1.71934 3.5865e-19)
(0.0780493 1.79195 0)
)
;

boundaryField
{
    wall-4
    {
        type            noSlip;
    }
    velocity-inlet-5
    {
        type            fixedValue;
        value           nonuniform List<vector> 0();
    }
    velocity-inlet-6
    {
        type            fixedValue;
        value           nonuniform List<vector> 0();
    }
    pressure-outlet-7
    {
        type            zeroGradient;
    }
    wall-8
    {
        type            noSlip;
    }
    frontAndBackPlanes
    {
        type            empty;
    }
    procBoundary14to12
    {
        type            processor;
        value           nonuniform List<vector> 3((0.0115073 1.78932 0) (0.0575176 1.79572 6.13835e-19) (0.140315 1.702 1.90799e-19));
    }
    procBoundary14to13
    {
        type            processor;
        value           nonuniform List<vector> 6((-0.000679397 1.73031 -4.92482e-21) (-0.0292549 1.76163 -1.53742e-19) (0.0396917 1.71711 6.19659e-20) (0.0166101 1.70684 4.18579e-21) (-0.018022 1.74483 3.45067e-19) (-0.0009793 1.7646 0));
    }
    procBoundary14to22
    {
        type            processor;
        value           nonuniform List<vector> 6((-0.00257846 1.60397 -1.05591e-18) (0.133237 1.73593 0) (0.215153 1.73777 4.60559e-19) (0.186223 1.83648 -1.56738e-19) (0.142051 1.63981 -2.35741e-19) (0.0129721 1.52175 0));
    }
}


// ************************************************************************* //
