/*--------------------------------*- C++ -*----------------------------------*\
| =========                 |                                                 |
| \\      /  F ield         | OpenFOAM: The Open Source CFD Toolbox           |
|  \\    /   O peration     | Version:  2412                                  |
|   \\  /    A nd           | Website:  www.openfoam.com                      |
|    \\/     M anipulation  |                                                 |
\*---------------------------------------------------------------------------*/
FoamFile
{
    version     2.0;
    format      ascii;
    arch        "LSB;label=32;scalar=64";
    class       volVectorField;
    location    "5";
    object      U;
}
// * * * * * * * * * * * * * * * * * * * * * * * * * * * * * * * * * * * * * //

dimensions      [0 1 -1 0 0 0 0];

internalField   nonuniform List<vector> 
39
(
(0.906714 0.0158302 0)
(0.944662 0.0106365 0)
(0.91185 0.0125952 0)
(0.93 0.0182663 0)
(0.894482 0.00419974 0)
(0.915229 -0.00506998 0)
(0.893124 -0.0118932 0)
(0.994399 0.011296 1.81106e-21)
(1.00237 0.0226599 4.51458e-19)
(0.9986 0.00603291 -4.82223e-19)
(0.970347 0.00391479 6.06747e-19)
(0.981094 0.061913 4.38984e-19)
(0.964688 0.0237829 -4.98374e-19)
(0.936003 0.0180496 5.76919e-19)
(0.974302 0.0646859 -5.73051e-20)
(0.995788 0.042163 8.5551e-20)
(0.983815 0.03472 -4.71573e-20)
(1.01291 0.028252 0)
(1.00067 0.024033 0)
(1.00537 0.0123789 9.89542e-20)
(0.968728 0.0126092 0)
(0.973132 0.00984263 -1.15361e-19)
(0.991307 0.0590995 2.08882e-19)
(1.04592 0.0565886 0)
(1.0296 0.0918223 0)
(1.01401 0.040359 2.2433e-19)
(1.00704 0.0468945 2.79804e-19)
(1.01269 0.0462396 -2.21301e-19)
(1.01525 0.0589271 -1.87841e-19)
(0.99235 0.0655619 -3.0901e-19)
(0.948494 0.0582038 0)
(0.927899 0.0618702 -2.06605e-19)
(1.00726 0.0810135 2.53898e-19)
(0.986471 0.0919596 -1.88146e-19)
(0.996027 0.0978598 8.70709e-20)
(0.994749 0.108366 0)
(0.999198 0.0821519 0)
(0.997821 0.0795498 -1.14571e-19)
(1.00965 0.0824129 -2.04006e-19)
)
;

boundaryField
{
    wall-4
    {
        type            noSlip;
    }
    velocity-inlet-5
    {
        type            fixedValue;
        value           nonuniform List<vector> 0();
    }
    velocity-inlet-6
    {
        type            fixedValue;
        value           nonuniform List<vector> 0();
    }
    pressure-outlet-7
    {
        type            zeroGradient;
    }
    wall-8
    {
        type            noSlip;
    }
    frontAndBackPlanes
    {
        type            empty;
    }
    procBoundary11to0
    {
        type            processor;
        value           nonuniform List<vector> 3((1.00192 0.0136201 0) (1.00162 0.0119399 -2.11532e-19) (1.01293 0.0147211 0));
    }
    procBoundary11to3
    {
        type            processor;
        value           nonuniform List<vector> 2((0.967072 0.00715338 0) (1.00325 0.017435 2.54543e-21));
    }
    procBoundary11to9
    {
        type            processor;
        value           nonuniform List<vector> 6((1.07654 0.074959 0) (1.06425 0.0321679 0) (1.01037 0.0249102 -1.50784e-20) (1.01723 0.0184725 1.34776e-19) (1.06039 0.0921658 9.16153e-20) (0.977333 0.139012 -1.35e-20));
    }
    procBoundary11to10
    {
        type            processor;
        value           nonuniform List<vector> 4((0.9051 0.0107759 0) (0.967667 0.106804 0) (0.952915 0.0681351 0) (0.909586 0.0680506 8.60202e-20));
    }
}


// ************************************************************************* //
