/*--------------------------------*- C++ -*----------------------------------*\
| =========                 |                                                 |
| \\      /  F ield         | OpenFOAM: The Open Source CFD Toolbox           |
|  \\    /   O peration     | Version:  2412                                  |
|   \\  /    A nd           | Website:  www.openfoam.com                      |
|    \\/     M anipulation  |                                                 |
\*---------------------------------------------------------------------------*/
FoamFile
{
    version     2.0;
    format      ascii;
    arch        "LSB;label=32;scalar=64";
    class       volScalarField;
    location    "33";
    object      p;
}
// * * * * * * * * * * * * * * * * * * * * * * * * * * * * * * * * * * * * * //

dimensions      [0 2 -2 0 0 0 0];

internalField   nonuniform List<scalar> 
918
(
0.560817
1.21133
0.00231963
0.560112
-0.0146426
1.17839
-0.495203
0.730651
0.540937
-0.0855903
-0.0201447
0.53518
1.03885
0.805248
-1.12551
0.0985143
0.681573
-0.375099
0.539935
-0.0935871
0.763525
0.547544
0.550581
0.541171
0.601636
0.787113
0.919556
-0.0579033
-0.0143908
-0.0330523
-0.00938752
-0.0116758
0.0169129
1.06204
1.11312
1.13579
0.509379
0.33495
-0.355584
-0.427334
-0.419329
-0.534782
0.722098
0.724069
-0.165011
0.731436
0.741099
0.528198
0.5403
0.541191
0.5423
0.541243
0.542645
0.417334
-0.0932458
-0.124017
-0.0645051
-0.0557771
0.0917178
-0.0230413
-0.0279331
-0.0169663
-0.0217121
0.461044
0.531338
0.528443
0.53995
0.547748
1.15088
1.12281
1.14895
1.06255
1.0791
1.01684
0.989433
0.825794
0.847183
0.790065
0.779211
-1.56348
-2.52662
-0.529256
-0.274729
-0.0414482
0.0899474
0.0894358
0.672511
0.672247
0.682602
0.695041
1.08287
-0.369952
-0.492305
0.540077
0.53887
0.547255
0.547948
0.543959
0.543054
-0.0888528
-0.0761502
-0.100733
-0.0971797
-0.0956696
0.75258
0.751441
0.541715
0.538737
0.555105
0.575256
0.567293
0.294796
0.606234
0.620373
0.607716
0.776554
0.770776
0.779607
0.893059
0.856161
0.956912
0.980131
-0.0526959
-0.0553809
0.113328
0.073382
0.0893571
0.505342
0.49811
0.524038
0.512725
0.515128
0.250268
0.114871
0.421153
0.446616
-0.267091
-0.330034
-0.428811
-0.448669
-0.551284
0.606634
0.710705
0.711442
-0.184638
-0.105595
-0.242225
-0.0323443
-0.0934971
0.518633
0.525522
0.520599
0.535934
0.530456
0.532391
0.544523
0.541604
0.543164
0.481379
0.605969
0.344674
0.312098
-0.236261
-0.142198
-0.238654
-0.0438303
-0.0378097
0.0980915
0.117042
0.0810713
0.0731383
-0.0354339
-0.0285239
-0.0338281
-0.0253949
-0.0309919
0.454048
0.443553
0.47312
0.480116
0.521978
0.52303
0.526028
0.524714
0.940266
0.962554
0.9701
0.943964
-3.52843
-6.33292
0.0548836
0.194137
-0.109026
-0.104865
-0.0570211
-0.0249175
-0.0412342
-0.0129673
0.0564521
0.0506806
0.0606367
0.0660566
0.657039
0.65666
0.999731
0.996948
0.983844
0.933563
0.528132
0.530254
0.535819
0.531661
-0.0430138
-0.0683951
-0.0518632
0.739751
0.746948
0.74656
0.258448
0.173957
0.343207
0.370492
0.642809
0.625572
0.639863
0.668737
0.7052
0.987543
1.00578
1.00406
1.01251
1.05662
1.07309
1.03831
0.485586
0.495138
0.490365
0.527291
0.524951
0.525915
0.521269
0.522861
0.520593
-0.0375005
-0.421528
0.504447
0.520548
0.49577
0.504613
0.683437
0.755524
0.694267
0.703317
0.703325
0.0335662
-0.0235928
0.268572
0.234614
0.396945
0.431385
0.411501
0.91128
0.871987
0.921932
0.895349
0.856797
0.882366
-0.373313
-1.88805
-0.998593
0.549672
0.360391
0.448946
0.0577653
0.0498448
0.0547591
0.989811
1.06938
0.661718
0.826003
0.835787
0.744486
0.775313
0.829078
0.754736
0.789316
0.824484
0.806524
0.563684
0.517443
0.522393
0.823401
0.878448
0.147761
0.0937849
0.0497177
0.138219
0.191124
0.169391
1.03567
0.935223
1.00693
0.538482
0.539169
-0.10386
-0.109998
0.543285
0.543316
-0.0265525
0.0278193
0.431568
-0.835087
0.136912
0.531746
0.522072
0.538946
-0.0702716
0.37594
-0.0291914
0.0833257
0.0507239
0.532479
0.470915
0.432473
-0.166758
0.0771604
-0.0818937
-0.198746
0.536156
0.534469
0.53841
0.53941
0.540066
-0.195308
-0.146357
-0.165978
-0.125067
-0.120679
-0.112225
0.503787
0.52077
-0.151633
0.538524
0.540668
0.540475
0.533629
0.539298
0.537529
0.0327931
0.0331531
0.0757464
0.244084
0.362805
0.679237
0.775013
0.644212
0.4174
0.178571
0.578651
0.64463
0.546561
0.705571
0.704083
0.722974
0.199627
0.0519426
0.207689
0.150682
0.529614
0.52827
0.52031
0.517428
0.533817
0.531913
0.536451
0.5334
0.536377
0.537811
-0.0288161
-0.0485511
-0.0683762
-0.127068
0.333118
0.592569
0.269803
0.301032
0.172735
-0.015807
-0.0210914
-0.0287401
-0.0353073
0.0257624
0.0303009
0.077863
0.0858738
0.0684481
0.0449893
0.023852
0.0196715
0.0115084
0.526429
0.525186
0.53106
0.539361
0.48003
0.483891
0.450439
0.470155
0.456179
0.397183
0.431765
0.407019
-0.0490864
-0.120777
-0.0660429
0.0553297
0.0484877
-0.1074
-0.164239
-0.143162
-0.146527
-0.16029
-0.0643336
-0.066796
-0.15963
-0.273802
0.986902
0.927482
0.125392
0.525383
0.531775
0.528586
0.533371
0.536452
0.537314
0.53507
0.531636
0.521391
0.523169
0.5195
0.520097
-0.0913581
-0.228486
-0.0533096
-0.12045
0.144109
0.635854
0.376161
0.31686
0.310541
0.531688
0.928215
0.724282
0.721173
0.744176
-0.339475
0.0569893
-0.272586
0.345833
0.168038
0.676826
0.727804
0.75111
0.697517
0.648705
-0.107936
0.551552
-0.0408133
0.0041103
0.19622
0.0887978
0.722294
0.687535
0.692951
0.710261
0.729068
0.693163
0.67276
0.667416
0.706584
0.711517
0.507075
0.277054
0.232459
0.193992
0.67133
0.548095
0.605953
0.51894
0.524536
0.527345
0.525919
0.508449
0.515734
0.511461
0.517259
0.520415
0.529536
0.529878
0.525305
0.527472
-0.0327709
-0.035798
-0.0142241
-0.123741
-0.111299
-0.170248
-0.0533711
0.0816723
0.0465119
0.238319
0.344931
0.057688
-0.0559443
-0.0254815
0.00308334
0.182656
0.207881
0.0902071
0.187492
0.166595
0.153739
0.255276
0.264074
-0.000960571
-0.00744024
-0.014683
-0.0138122
0.0507798
0.124214
0.134762
0.0244241
0.0222304
-0.0115265
-0.0169774
-0.00264349
-0.00657196
-0.00282297
0.0355598
-0.0542559
0.0217761
0.0239229
0.0283569
0.0356518
0.0282888
0.520083
0.521962
0.521755
0.528727
0.545364
0.560281
0.52143
0.501826
0.492863
0.495857
0.469795
0.479688
0.476201
0.488517
0.508822
0.51714
0.515439
0.517889
0.50125
0.502732
0.490329
0.493747
0.470473
0.452026
0.440471
-0.0820337
-0.0945324
-0.0870069
-0.0656202
-0.0623922
-0.0440783
0.0476714
0.0519068
0.0440778
0.0433169
0.0384889
-0.0880004
-0.0787885
-0.0699082
0.00793004
-0.178266
-0.211498
-0.283469
0.892223
1.00969
0.818125
0.595517
0.604786
0.843035
0.930165
0.558417
0.739448
0.764729
0.578875
0.839158
0.530189
0.529747
0.52735
0.526844
0.528071
-0.00348211
0.0965706
0.10695
0.160925
0.276468
0.390168
0.312681
0.184953
0.318713
0.324505
0.630801
0.646716
0.593666
0.6173
0.614712
0.443032
0.520585
0.576299
0.528694
0.574725
0.596991
0.557565
0.587961
0.533834
0.490708
0.489375
0.436103
0.456763
0.435095
0.417263
0.519746
0.497606
0.508124
0.498648
0.51838
0.544417
0.53948
0.566526
0.577752
0.503621
0.463698
0.473387
0.501845
0.462243
0.47517
0.490783
0.227885
0.128216
0.211642
-0.0809721
-0.000148243
-0.0154924
-0.0624814
-0.0165779
0.269674
-0.429318
-0.402413
-1.03548
0.491821
0.959449
0.67615
0.647552
0.724739
0.703323
0.705918
0.728672
0.735933
0.660972
0.678815
0.682888
0.638214
0.662161
0.683951
0.682258
0.525442
0.400171
0.391066
0.351919
0.227619
0.260838
0.463367
0.385588
0.312585
0.316643
0.478842
0.368148
0.434321
0.472633
0.404344
0.35948
0.56257
0.629406
0.619654
0.595253
0.510557
0.52347
0.548795
0.58481
0.61198
0.643692
0.517011
0.522807
0.524079
0.5216
0.518742
0.52166
0.52174
0.524276
0.525122
0.52803
0.527028
-0.0286945
-0.0169288
-0.0238797
-0.0317496
-0.00360048
-0.0111824
0.0318732
0.0197368
0.00921845
0.0167116
-0.0114737
-0.0168487
-0.00946621
-0.000389621
0.111089
0.125056
0.106994
0.066066
0.250832
0.383062
0.451611
0.330061
0.224183
0.247208
0.272704
0.0069707
0.0399994
0.0238622
0.0662702
0.0514831
-0.00744254
-0.0142916
-0.017398
0.00139552
0.00985524
-0.0207005
-0.0424161
-0.0235893
-0.0246312
-0.0275743
-0.0436549
0.503938
0.497534
0.498837
0.492977
0.491815
0.505417
0.509641
0.511347
0.516595
0.518458
0.509144
0.514497
0.517983
0.0108229
-0.0558949
-0.0293832
-0.0186009
-0.0431161
-0.0569313
-0.0435044
0.119563
0.0452075
0.0509587
0.00920961
-0.115507
-0.0590816
0.486253
0.485419
0.488955
0.712102
0.563707
0.48405
0.580948
0.685787
0.267428
0.467497
0.299847
0.880951
0.773221
0.918083
0.53729
0.240323
0.394922
0.444816
0.254107
0.326856
0.331292
0.221422
0.253195
0.284423
0.384197
0.264122
0.238867
-0.00323567
0.184824
0.301104
0.281983
0.410618
0.474252
0.258527
0.180097
0.133988
0.622979
0.642647
0.66202
0.631784
0.656513
0.579156
0.570637
0.588661
0.59646
0.590795
-0.763858
-0.471783
-1.41619
-0.731581
-0.282217
0.521224
0.485559
0.761172
0.650367
0.715217
0.700768
0.661699
0.627757
0.639171
0.671698
0.372506
0.482302
0.456903
0.462793
0.365437
0.298786
0.597904
0.591786
0.627399
0.651766
0.619385
0.652695
0.514685
0.514398
0.513954
0.510504
0.509014
0.511117
0.0718355
0.043439
0.0744879
0.0546949
0.0339636
0.0234268
0.0245342
0.0103228
0.00147442
-0.00688843
0.0232921
0.0299265
0.162047
0.103581
0.0262597
0.0564879
-0.00127699
-0.0677936
-0.0864317
0.0124433
0.10464
0.0957685
0.399178
0.650202
0.472241
0.641164
0.479938
0.535659
0.479392
0.46979
0.499464
0.380044
0.458446
0.220835
-0.281774
-0.190912
0.776707
0.795436
0.577797
0.391405
0.162187
0.351042
0.552477
0.489055
0.527754
0.59644
0.588529
0.00804257
0.0753873
0.335234
0.56358
0.232671
0.223579
0.218768
0.393105
0.317449
)
;

boundaryField
{
    wall-4
    {
        type            zeroGradient;
    }
    velocity-inlet-5
    {
        type            zeroGradient;
    }
    velocity-inlet-6
    {
        type            zeroGradient;
    }
    pressure-outlet-7
    {
        type            fixedValue;
        value           uniform 0;
    }
    wall-8
    {
        type            zeroGradient;
    }
    frontAndBackPlanes
    {
        type            empty;
    }
}


// ************************************************************************* //
