/*--------------------------------*- C++ -*----------------------------------*\
| =========                 |                                                 |
| \\      /  F ield         | OpenFOAM: The Open Source CFD Toolbox           |
|  \\    /   O peration     | Version:  2412                                  |
|   \\  /    A nd           | Website:  www.openfoam.com                      |
|    \\/     M anipulation  |                                                 |
\*---------------------------------------------------------------------------*/
FoamFile
{
    version     2.0;
    format      ascii;
    arch        "LSB;label=32;scalar=64";
    class       surfaceScalarField;
    location    "33";
    object      phi;
}
// * * * * * * * * * * * * * * * * * * * * * * * * * * * * * * * * * * * * * //

dimensions      [0 3 -1 0 0 0 0];

oriented        oriented;

internalField   nonuniform List<scalar> 
1300
(
3.75095
5.62643
-3.52373
3.75095
-5.10081
5.62643
-4.44637
4.44637
-1.00854
1.00854
1.87644
1.87451
-2.97126
2.97126
-2.40978
2.40978
-2.56092
2.56092
-5.24646
5.24646
-5.06903
5.06903
4.66751
-4.66751
-5.71473
5.71473
-1.37133
1.37133
-3.82901
3.82901
3.16977
-3.16977
-2.28123
2.28123
-0.266455
0.266455
-0.553532
4.30449
3.19742
3.19742
-2.05888
2.05888
-4.86302
4.86302
6.21812
-6.21812
4.95026
-4.95026
-1.42653
-2.80256
0.782349
-10.1623
-4.31847
-4.31847
-8.44038
8.44038
-2.81395
2.81248
2.94341
-2.94341
-1.78084
1.78084
-4.38858
-0.0577901
-4.38858
4.43622
0.010149
4.43622
-1.10525
0.0967085
-1.10525
3.93447
-3.93447
0.86542
0.143119
0.86542
3.06472
-3.06472
-1.87705
3.75349
1.8739
-1.87186
6.17635
-1.87909
3.7536
-5.94015
5.94015
-3.18331
0.212049
-3.18331
2.77597
0.19529
2.77597
-6.719
6.719
-2.40444
-0.00533794
-2.40444
2.40572
0.00406563
2.40572
2.86618
-2.86618
-2.65935
0.0984275
-2.65935
2.45253
0.108399
2.45253
0.353527
5.2729
-5.97996
8.79244
-5.2729
0.0264407
5.20838
0.0380831
5.20838
-5.10611
0.0370874
-5.10611
5.01137
0.0576574
5.01137
4.7583
-0.0907954
4.7583
-4.78285
0.115347
-4.78285
-3.30261
-5.44834
-6.08814
0.373415
-6.08814
-1.37337
0.00203861
-1.37337
1.3298
0.0415258
1.3298
-3.58893
3.58893
-4.21134
0.382325
-4.21134
3.1242
0.0455763
3.1242
1.86851
1.88244
5.61946
-5.61946
2.44969
-2.31037
0.029143
-2.31037
-2.28886
-2.6614
2.28886
-0.00763124
-0.533205
0.266751
-0.533205
3.15926
0.0381618
3.15926
2.29629
0.156232
-2.29629
0.237418
3.20386
-3.20386
1.42552
0.633354
1.42552
-5.56612
5.56612
4.95388
0.0574859
-4.95388
0.0908626
6.15712
0.0609986
6.15712
-6.19959
-0.0185294
-6.19959
1.59824
-4.4008
-3.51823
5.09874
0.615984
-5.09874
0.78028
2.91388
0.0295324
2.91388
-2.9211
2.9211
-2.98299
0.0395821
-2.98299
-2.18251
0.401665
-2.18251
1.47985
0.300996
1.47985
-4.26111
-0.127472
-4.26111
-4.3544
0.143067
4.3544
0.0818164
1.08474
-1.08474
-1.21367
0.10842
-1.21367
-4.08894
-0.172163
4.08894
-0.154476
-3.80841
-0.126058
-3.80841
-3.02338
0.0403832
3.02338
0.041338
3.11256
0.0466994
-3.11256
0.0478447
-1.87084
3.75328
-1.88012
3.75402
-5.55724
-0.382911
-5.55724
6.24917
-0.309025
6.24917
3.52467
0.304345
-3.52467
0.341357
2.62474
0.15123
2.62474
-6.70063
-0.0183749
-6.70063
6.69002
0.0289855
6.69002
2.49523
0.12951
-2.49523
0.090786
2.35425
0.0514692
2.35425
2.88105
-0.0148732
2.88105
-2.8641
-0.00208459
-2.8641
2.80159
-2.80159
2.73464
0.0669412
-2.73464
0.0752927
-11.1329
11.1144
-0.0351591
-11.0978
5.17322
5.17322
4.18766
0.570646
4.18766
-4.998
0.215148
-4.998
2.31268
-5.83091
4.86985
-8.17246
5.45782
-15.6201
3.77201
-9.22035
6.50322
-6.50322
6.32242
0.180794
-6.32242
0.234279
-1.39704
0.0236687
-1.39704
-2.98176
-0.607176
-2.98176
4.24457
-0.655638
4.24457
-3.02908
3.02908
-3.07795
0.0488713
3.07795
0.0462444
2.29724
0.0570031
-2.29724
-0.0131279
0.702419
0.163001
-0.702419
0.169213
3.40114
-0.19728
3.40114
-3.02487
-0.178989
-3.02487
-1.41204
0.0149989
1.41204
0.0134856
-5.81496
0.248838
-5.81496
-11.1907
0.0929877
-11.1527
-6.1066
-6.1066
2.33378
11.1262
-2.88638
0.0222892
2.88638
0.0274952
2.97624
0.0528463
-2.97624
0.055131
-2.86312
0.0615343
2.86312
0.0579842
-2.56012
0.377611
-2.56012
-1.07177
1.07177
-1.24492
0.173155
1.24492
0.234923
1.33205
-0.247303
1.33205
1.28289
0.0469147
-1.28289
0.0692215
-3.69743
-0.110981
-3.69743
6.47481
-0.225637
6.47481
-2.93113
-0.0937351
2.93113
-0.0500819
-0.0333213
11.1477
-5.1399
0.0337848
5.1399
-11.2087
11.2425
-3.23426
0.674137
3.23426
0.9534
5.2887
0.277424
-5.2887
0.290699
6.62259
0.0674279
-6.62259
0.119373
-2.49145
-0.490309
-2.49145
-4.97346
-0.583772
4.97346
-0.728893
-11.4748
-0.204579
11.6794
-11.4172
6.01954
0.13758
-6.01954
11.3801
-1.00543
-0.0793115
1.00543
0.0663348
1.64602
-0.313973
1.64602
3.58995
-0.188811
-3.58995
-0.107477
-6.6252
-0.0754263
6.6252
-0.150393
-2.05379
-0.437655
2.05379
-0.407773
-4.26698
4.30514
1.90937
-1.68232
-2.71848
-4.34372
1.85205
1.90123
4.30174
-10.2269
-5.39321
-9.44662
7.26656
-6.97586
-9.27054
9.17975
7.61876
-7.74482
-5.78536
5.8316
6.48204
-6.4407
1.87865
1.87484
7.88575
-7.6737
-15.6999
15.317
7.45455
-7.45988
15.7916
-15.81
-17.8053
17.8727
-5.72273
5.82116
-6.72577
6.72368
-6.93888
6.8888
-2.87816
-5.2943
13.0907
-12.7173
7.55042
-7.52128
-8.5049
8.88722
3.38244
0.922701
3.42914
-1.88231
3.76096
-1.8713
3.78066
3.60009
-6.47826
2.23082
-4.9493
3.41762
4.1328
-3.40998
-0.933735
-5.91871
5.94824
-5.82182
5.87981
8.96148
-9.01927
-1.88516
3.76
-1.86886
3.77009
-3.4252
-2.36016
3.37963
0.922112
7.68663
5.40404
-8.30261
-1.144
-7.86179
7.67298
-8.1378
7.95881
-0.44194
5.82008
-5.37814
4.42108
-1.55863
7.37871
5.70793
5.92308
5.8665
-5.58908
1.10936
-6.4875
-6.39664
-2.53639
2.64481
2.47951
-2.33639
5.9846
1.63416
5.83012
-5.57941
-2.16541
-5.69039
3.82122
2.01038
3.8701
4.07674
2.4053
4.11712
3.03078
-3.03574
0.00496123
-3.0563
6.08708
0.724254
-5.41646
-4.49435
4.9306
2.95515
5.12589
-5.47755
-2.19615
-5.1362
-9.57196
-6.12795
-10.1557
10.1276
5.18938
9.81859
-11.9864
11.836
4.75242
2.70213
4.75649
-4.92479
-2.5351
-4.834
11.6456
-2.55434
-9.09127
-10.3026
-7.50275
10.2736
5.51806
10.9157
6.95705
11.0351
4.42641
7.2192
-9.94446
2.44171
-3.86913
-1.85361
-3.79383
3.6941
2.12707
3.80249
-4.21297
-2.5128
-4.19068
-4.28568
-2.6532
4.30055
2.42313
-4.39534
-3.74246
4.48908
2.39972
5.1417
-10.5349
4.07865
-9.37295
-9.17352
-3.54373
-8.93925
4.07916
3.0316
-7.11076
-2.3991
8.28213
-4.14932
7.34839
-4.47097
-3.0503
-4.4841
-6.79773
-1.70717
-6.65466
-8.8991
8.40879
-9.21026
8.55462
12.6661
-5.71178
-6.95431
-3.96808
-2.47262
3.92024
-0.491098
-3.71109
3.71605
0.0498717
3.83054
4.75324
4.26214
-3.88722
-1.9346
-3.83209
3.83265
2.04716
3.89418
6.74488
2.2166
6.75502
-6.46355
-2.55571
-6.59103
9.07188
-8.67021
2.90174
-2.88675
5.29218
2.66663
-5.0949
-2.76689
6.20892
-3.14554
-3.06338
-12.2101
10.558
1.65206
-4.83136
-0.410275
-0.143821
-5.49909
-3.77145
5.38375
0.539331
11.0973
7.32589
-5.51255
5.76139
6.16684
6.22432
-0.172314
5.83312
-5.15899
5.32015
-2.42138
-2.89877
5.32188
-5.49404
-1.26915
-5.34028
4.07113
0.336082
1.72836
-1.46161
-2.00478
-0.531611
-1.93556
1.47936
1.00015
1.64236
0.960433
1.68438
-2.95189
0.555306
2.39659
-1.99146
-1.78109
-3.69302
-1.03362
4.72664
5.58846
2.08451
-5.48099
-0.209404
2.69536
-2.65383
-0.780314
-2.9127
2.12761
-2.90792
-3.62488
-1.89491
5.5198
-3.37079
-0.461299
3.31794
0.552153
-3.82516
-2.09355
3.78558
0.33154
-3.12485
6.1901
-3.06525
-5.05946
2.52878
3.55831
4.53915
-4.78994
2.44623
2.34371
-1.23163
4.22096
0.904926
4.37219
-6.72669
4.53054
5.74082
3.1464
-6.04517
0.90897
-5.81772
8.45553
-7.27564
-1.17989
4.07914
4.37638
7.16453
5.50156
-5.73384
12.8984
-1.15479
-6.12085
6.97251
-3.8261
4.77189
-8.598
-10.2735
4.1526
-9.24823
11.0082
-1.75993
-3.61616
-8.37024
12.8644
-1.22272
-11.6417
8.59587
-4.22157
-4.27121
8.49278
-6.77591
6.8063
-1.98373
-4.82257
-10.126
-5.68399
10.2014
1.63456
-9.84534
12.2871
-2.62614
3.92951
0.826978
3.98098
3.265
-5.39754
2.13254
3.51092
-5.49465
2.07606
-7.4736
-7.02645
12.6162
-5.58977
-10.5702
-9.63111
-0.939065
2.49313
9.79392
-9.45018
7.3545
2.09568
3.31011
0.584069
-3.37706
-0.416777
0.262138
4.54229
-4.80443
4.06463
4.22086
3.36374
1.17855
3.83959
2.10866
-3.86708
-0.323596
-4.1547
1.5015
-1.73157
-3.65885
5.16035
-4.06457
0.405714
-2.73136
-3.50818
6.23954
-4.58497
3.03934
3.15077
5.0865
-4.9109
1.40272
-2.40055
-2.51035
2.66185
-4.39342
1.95061
3.20974
4.35033
0.607877
6.42865
6.18757
-9.46025
0.0873012
11.5916
-10.4476
2.52515
8.50991
-9.87965
0.248545
-8.6907
1.44668
-5.596
-5.66408
5.09233
-6.7995
-3.50566
6.13828
0.616746
-6.2201
-0.434566
-6.04613
-2.85297
-6.48378
-3.06278
-6.14748
-8.79662
-1.65414
-7.14248
6.75465
-6.69832
-3.45742
7.42721
1.12741
-7.40928
7.32997
-7.49399
7.18002
0.0948465
3.6212
4.35698
1.88437
-2.38957
4.27393
-5.07695
7.29355
-8.59015
3.5132
4.05592
-6.61163
-4.53423
5.03644
4.03544
5.33744
8.93814
-10.44
1.5019
-10.753
12.0914
-1.33834
-16.5333
5.78026
-7.59515
2.63524
0.266503
2.65891
0.652393
2.43658
-3.08897
-2.23435
-2.22087
-2.35243
-3.43715
5.78959
1.16036
-3.43668
2.27632
-3.49578
4.65614
-0.0732368
-3.36345
5.29288
-2.8563
5.55939
-3.56902
1.99037
3.35261
5.71588
-2.36327
4.36095
-1.69432
1.8431
-4.20636
-1.59406
-2.96812
5.09518
-3.27142
3.67714
-0.290757
3.96789
-4.0861
0.94056
-0.722356
3.49851
3.73593
4.28874
-3.1102
2.981
-4.67531
-1.22536
-4.06744
-0.857696
-0.299979
-3.76547
4.06545
6.0341
-6.33408
-5.25766
9.56308
-4.30541
7.71714
-5.4025
-2.31465
-4.27125
-4.39896
3.89364
1.93948
9.65662
0.209354
-5.61185
-4.94963
-3.99623
3.21281
2.10734
-1.92509
3.57714
2.06891
-0.34055
0.567227
1.07514
1.85789
-1.29066
0.217256
1.64063
-1.24435
1.97912
0.716242
-2.02603
0.0904705
-1.35779
3.4854
1.0388
-2.03895
0.748289
1.06571
-3.48709
4.84687
-2.48859
-2.35828
5.91258
1.16419
-3.65278
4.17609
-3.84001
2.33428
-3.3679
-1.3185
-5.15851
-3.52434
-2.54504
4.82136
-3.24454
5.32906
1.19648
-5.11965
6.31613
-3.58053
1.68562
-3.0731
3.78934
-1.07561
-1.99749
2.80791
2.71189
-2.94234
0.0296335
-0.134431
2.33504
-2.46947
-0.572886
-2.56435
-4.57141
4.90295
-2.10783
4.55406
2.1661
-1.91426
6.46833
1.81157
-3.72584
-3.24788
-3.70918
-1.38213
3.15703
-0.570534
-4.26347
-5.3931
4.13396
0.238233
-6.85971
7.66853
-0.808824
-3.90456
-0.625986
4.70513
-5.96852
0.473875
-3.89246
3.77607
4.681
4.91923
-11.4493
-0.192413
-6.25987
1.15325
-7.41312
5.52963
-3.59786
7.75046
-10.4279
6.9705
-9.30051
6.57057
-0.842554
6.25366
-4.12111
2.83761
-8.5216
-6.88704
5.44965
-2.74752
6.27662
-3.11912
9.39574
-5.74526
5.09944
4.2963
-0.673137
-3.81097
-5.32646
4.65332
-0.227016
3.75396
4.97357
-2.86491
4.64998
2.25624
-4.65679
-2.13718
-6.49832
1.84153
-3.34756
-1.91552
3.75705
3.17097
3.75504
1.24671
-3.33826
7.41615
-8.35522
-1.82638
-3.8377
5.36174
-0.708415
3.28457
-7.12227
-2.31144
4.87014
-0.799006
-4.07113
0.841643
-4.3473
1.65527
-6.00258
5.14423
-5.5788
2.20923
-9.80439
-5.20004
-5.13371
-2.24812
-5.24587
-7.61705
5.36894
-1.83679
5.49318
-8.59461
7.7956
-3.49676
8.8657
-5.44034
-1.04344
5.84812
1.3319
10.1976
0.1708
-4.70503
-1.87986
3.94712
-2.06726
1.33295
-3.59467
0.352449
2.47761
3.43498
-6.54874
-0.0628911
-4.76793
-3.92304
7.95847
5.64004
11.6741
1.23411
9.15008
-1.1916
10.3842
4.14583
4.38076
-3.05142
4.55332
1.01403
4.52723
-0.836483
2.82685
1.82243
1.82447
0.829367
2.31321
1.42272
3.25377
0.164798
-2.05607
4.63775
-8.63398
-0.974103
-8.06333
1.11641
5.72728
-4.61086
3.10077
-0.993428
1.03351
0.102092
-1.61836
1.51627
-2.79668
-1.95891
-0.318279
-1.6108
2.35909
1.8746
-2.04081
-0.755866
0.323317
-3.84766
3.04458
-3.01495
-0.30306
6.01307
-2.75001
0.280536
-1.06438
-2.28381
-2.81542
2.72495
6.17732
0.291008
3.11207
5.19395
3.1004
0.235488
3.92026
-5.68019
-3.55334
-5.8726
-0.342963
4.36217
1.74214
8.05178
6.03844
5.33002
-1.79224
-10.1475
6.5934
-2.04008
5.25506
-1.18393
-4.81865
4.97067
2.32288
-5.58742
0.00861877
-4.81003
-6.85011
-0.525744
8.32135
-9.67185
8.62841
5.77544
1.36704
-4.40809
-0.725615
4.23494
0.14582
10.53
-1.12928
-6.81501
7.94428
-4.598
3.6239
0.835309
2.74183
2.35158
1.35815
-5.45686
-10.0677
-1.91173
-1.57536
-4.27001
0.456628
-2.33123
6.24979
-2.6259
3.93515
5.31839
6.3519
-2.15834
-4.17574
6.46375
-2.5286
3.82329
)
;

boundaryField
{
    wall-4
    {
        type            calculated;
        value           uniform 0;
    }
    velocity-inlet-5
    {
        type            calculated;
        value           uniform -3.75095;
    }
    velocity-inlet-6
    {
        type            calculated;
        value           uniform -5.62643;
    }
    pressure-outlet-7
    {
        type            calculated;
        value           nonuniform List<scalar> 8(3.52373 5.10081 4.22909 9.37993 8.75096 5.11647 7.18253 9.22983);
    }
    wall-8
    {
        type            calculated;
        value           uniform 0;
    }
    frontAndBackPlanes
    {
        type            empty;
    }
}


// ************************************************************************* //
