/*--------------------------------*- C++ -*----------------------------------*\
| =========                 |                                                 |
| \\      /  F ield         | OpenFOAM: The Open Source CFD Toolbox           |
|  \\    /   O peration     | Version:  2412                                  |
|   \\  /    A nd           | Website:  www.openfoam.com                      |
|    \\/     M anipulation  |                                                 |
\*---------------------------------------------------------------------------*/
FoamFile
{
    version     2.0;
    format      ascii;
    arch        "LSB;label=32;scalar=64";
    class       volVectorField;
    location    "33";
    object      U;
}
// * * * * * * * * * * * * * * * * * * * * * * * * * * * * * * * * * * * * * //

dimensions      [0 1 -1 0 0 0 0];

internalField   nonuniform List<vector> 
918
(
(0.985166 -0.000496975 0)
(0.00501226 2.96625 0)
(-0.0504981 0.924896 0)
(0.9797 0.0021521 0)
(-0.0506306 1.34958 2.13133e-20)
(-0.00704476 2.94879 -2.52389e-18)
(0.832849 1.17687 4.35559e-19)
(0.334867 0.153039 -1.62141e-20)
(0.999907 -0.000291912 0)
(0.0503733 0.847628 0)
(0.00257634 0.667694 0)
(0.734503 -0.0111204 0)
(0.0111223 2.93038 0)
(0.00214882 2.79509 0)
(-0.0177503 3.15703 7.78505e-19)
(-0.0818271 1.79736 -8.85735e-20)
(0.410408 0.0498739 1.06341e-18)
(0.190087 1.19086 3.09865e-19)
(0.962786 0.00503185 0)
(-0.0174761 0.640418 0)
(0.0796762 0.194746 -7.63831e-19)
(1.00198 -0.00498317 0)
(1.00022 -0.00979838 0)
(0.975716 -0.00644062 0)
(0.587785 -0.0399254 0)
(0.0164421 2.63801 0)
(-0.014992 2.9101 9.32155e-19)
(-0.0687596 0.837746 0)
(-0.188338 1.11431 0)
(-0.0582465 0.871359 0)
(-0.233172 2.50971 0)
(-0.0853493 1.54574 -1.67968e-20)
(-0.119535 1.28214 0)
(-0.0206075 2.9876 -9.08865e-23)
(-0.0166894 3.00529 1.96151e-18)
(0.00209958 3.00018 0)
(0.870449 -0.00949469 0)
(0.403868 0.937498 1.80686e-19)
(0.814035 1.19271 -4.79582e-19)
(0.963429 1.0319 5.27718e-19)
(0.684082 1.28585 -1.01464e-19)
(0.681994 1.26995 5.8927e-19)
(0.375736 0.239653 1.58182e-20)
(0.351739 0.122722 0)
(1.14113 0.555424 0)
(0.339526 0.239872 7.23302e-20)
(0.298783 0.161391 -7.50611e-20)
(0.91968 -0.00745766 0)
(1.00027 0.000134185 0)
(0.99991 0.000327695 0)
(1.00364 -0.00777884 0)
(1.00096 -0.000927198 0)
(1.00017 2.80462e-05 0)
(0.0791596 1.79352 -7.99771e-19)
(0.0306991 1.00565 0)
(0.0858757 0.908664 0)
(0.0256895 0.955629 0)
(0.0308093 0.778541 0)
(0.0253678 2.00118 0)
(-0.0154172 0.812544 0)
(0.0165081 0.664562 0)
(-0.00670577 0.813043 0)
(-0.00542459 0.667758 0)
(0.836213 -0.0150809 0)
(0.851143 0.0272738 0)
(0.768363 -0.00142835 0)
(0.825055 0.0358313 0)
(0.702316 -0.0157048 0)
(0.0146867 3.00041 9.36308e-19)
(0.0114932 3.00803 0)
(0.00611011 3.00277 0)
(0.0135381 2.99736 1.06335e-23)
(0.00797114 2.95847 -1.39158e-18)
(0.014496 2.98205 0)
(0.010862 2.90357 0)
(0.0243948 2.9307 2.14847e-24)
(0.00455689 2.82523 0)
(0.0308263 2.9163 0)
(-0.00516084 2.74479 0)
(0.30851 3.55398 0)
(-0.131924 3.63551 0)
(0.139565 3.24758 7.24489e-19)
(-0.0126789 2.98302 0)
(-0.305509 2.33739 0)
(-0.0909555 1.94978 8.73221e-20)
(-0.0395956 1.89302 -6.86118e-20)
(0.495708 0.148904 -3.6785e-19)
(0.408792 0.0285602 -3.5533e-19)
(0.480707 0.172177 -1.10808e-18)
(0.39486 0.070947 -7.31633e-19)
(0.216925 0.933738 0)
(0.272092 1.32937 -3.69856e-19)
(0.378179 1.27451 6.19192e-19)
(0.987492 0.00855056 0)
(0.941932 0.00585804 0)
(1.0003 0.000575922 0)
(1.00287 0.00930189 0)
(1.00302 0.00846561 -2.76266e-18)
(0.991917 0.00969478 2.0863e-18)
(0.00290595 0.776261 0)
(-0.00843123 0.630801 0)
(-0.0459369 0.858473 0)
(-0.0124944 0.77552 0)
(0.0175129 0.63142 0)
(0.125234 0.202097 2.36226e-19)
(0.181135 0.180411 0)
(0.993534 -0.00838925 0)
(0.954395 -0.00653069 0)
(0.777787 0.0442921 0)
(0.717362 0.0538318 0)
(0.659842 -0.0309318 0)
(0.949718 -0.00925204 0)
(0.637772 0.066191 0)
(0.468247 -0.0199349 1.53673e-18)
(-0.0367305 2.86303 6.96455e-19)
(0.0417436 2.90922 0)
(0.054716 2.88508 0)
(-0.00480185 2.6992 0)
(-0.0130062 2.9853 8.83887e-19)
(-0.0179759 2.89526 0)
(-0.0153577 2.98808 -2.73798e-18)
(-0.0133129 2.92522 9.36967e-19)
(-0.235375 1.16833 0)
(-0.268045 1.37341 0)
(-0.131069 1.83895 -2.83204e-21)
(-0.142418 1.69851 0)
(-0.0991153 1.57993 0)
(0.93768 -0.00761825 0)
(0.855957 -0.00947838 0)
(0.863619 0.00673099 0)
(0.94899 -0.00802683 0)
(0.883496 -0.00814598 0)
(0.516016 1.13132 -2.28258e-19)
(0.565562 1.18296 0)
(0.367805 0.881702 3.38291e-20)
(0.310051 0.741502 0)
(0.922833 1.07009 -1.43529e-19)
(1.0351 0.872854 2.85483e-19)
(0.373419 1.37825 0)
(0.537035 1.34911 0)
(0.545959 1.30169 0)
(0.11027 0.182674 -2.99113e-19)
(0.409726 0.223087 0)
(0.376909 0.113163 2.06349e-19)
(1.00492 0.927032 0)
(1.06972 0.774482 0)
(1.09519 0.715985 -2.12701e-19)
(1.12122 0.615776 0)
(1.16622 0.399415 5.51462e-20)
(0.957384 -0.00890256 0)
(0.962292 -0.0101256 0)
(0.901355 -0.00796477 0)
(0.984157 -0.00918082 0)
(0.974603 -0.00939121 0)
(0.937014 -0.00640262 0)
(1.00019 0.00233663 0)
(1.00091 0.00139799 0)
(0.999912 0.000849176 0)
(0.033973 2.05461 4.42229e-19)
(0.119482 1.73357 0)
(0.0137632 2.16936 3.23421e-19)
(0.0543198 1.85321 -5.80853e-19)
(0.106651 1.19374 -2.53631e-19)
(0.0467318 1.0798 0)
(0.142701 1.05596 0)
(0.0138849 0.911574 0)
(0.0220068 0.726642 0)
(-0.00743317 2.19475 -1.27384e-21)
(0.037593 1.99711 0)
(-0.0063729 2.17153 -6.7161e-20)
(0.0248843 1.99987 -1.01339e-20)
(0.0192032 0.866963 0)
(0.00442932 0.828463 0)
(0.021399 0.691902 0)
(-0.00703423 0.801857 0)
(-0.0258899 0.651435 0)
(0.934102 0.00866095 0)
(0.843382 -0.0148798 0)
(0.924607 -0.000427963 0)
(0.838811 -0.0122508 0)
(0.812977 0.00261347 0)
(0.902886 0.0190032 0)
(0.880336 0.0233277 0)
(0.789836 0.00121658 0)
(0.00563203 3.06473 -8.7603e-21)
(0.0166416 3.0579 0)
(0.01467 2.96906 0)
(0.00856341 2.87622 0)
(0.925685 3.97065 0)
(1.24037 3.3028 9.34316e-19)
(0.07009 3.0752 0)
(-0.0282095 2.90625 0)
(-0.229003 1.51588 0)
(-0.293033 2.22446 0)
(-0.322969 1.91738 0)
(-0.239935 2.51304 -2.06692e-20)
(-0.263331 2.46996 0)
(-0.259014 2.45859 0)
(0.0146756 1.97987 -3.5103e-22)
(-0.0256303 2.07189 4.68833e-20)
(-0.0425265 2.01943 6.94414e-20)
(-0.00762863 1.94469 0)
(0.522536 0.122222 5.50865e-19)
(0.424322 0.00604392 -5.40933e-19)
(0.261277 1.56486 0)
(0.265743 0.709941 -3.11986e-19)
(0.177978 1.6499 -1.05305e-18)
(0.227033 1.17999 1.0558e-18)
(0.902365 0.00660207 0)
(0.967551 0.0109579 0)
(0.974633 0.0107441 0)
(0.923508 0.00652755 0)
(-0.00699751 0.796351 0)
(-0.00307415 0.785958 0)
(-0.00510224 0.628774 0)
(0.288375 0.23491 6.64302e-19)
(0.236258 0.21512 -7.86069e-19)
(0.249387 0.173591 0)
(1.07384 0.0830953 2.8941e-20)
(1.0548 0.0378996 0)
(0.99387 0.0374526 0)
(0.891687 -0.00814334 0)
(0.54634 0.095834 0)
(0.57715 0.0733157 -2.46084e-18)
(0.44123 -0.00342472 9.25117e-19)
(0.00911735 2.98104 7.44895e-19)
(-0.0329219 2.86604 4.69442e-20)
(0.00368352 3.05019 -1.8526e-20)
(0.0201641 3.04342 6.59373e-19)
(-0.0150082 2.99657 3.07498e-20)
(-0.0129753 2.94949 -1.23701e-22)
(-0.0172614 3.01194 -5.6832e-19)
(0.0148613 3.02381 4.11056e-19)
(0.00736098 3.03678 -6.52044e-19)
(0.932119 -0.00247448 0)
(0.938176 -0.00395165 0)
(0.843487 -0.0085546 0)
(0.956839 0.0116139 0)
(0.94327 0.0128025 0)
(0.88196 0.00624563 0)
(0.918705 0.0156872 0)
(0.926893 0.0143834 0)
(0.8391 0.00455984 0)
(0.71959 1.41038 4.34826e-20)
(0.753297 1.51975 0)
(0.193743 0.33686 7.25705e-20)
(0.213922 0.652132 5.84512e-19)
(0.258329 0.717477 -3.37148e-19)
(0.267903 0.542432 6.69316e-19)
(0.324727 0.772896 1.57017e-18)
(0.127999 0.216558 3.66041e-19)
(0.455983 0.195468 -7.65318e-19)
(0.432363 0.211969 2.00955e-19)
(0.388001 0.0964271 3.86391e-19)
(1.15567 0.457722 2.69196e-20)
(1.16634 0.252316 2.11084e-20)
(0.00424986 2.20757 2.69911e-19)
(0.0524684 1.92085 0)
(0.959708 0.0265305 0)
(0.936894 0.0119933 0)
(0.858492 -0.0186061 0)
(0.0111946 3.07445 0)
(0.0197243 2.94401 1.21e-18)
(0.0164673 2.95636 0)
(0.00627453 2.85069 -1.20036e-18)
(0.0061822 3.0909 2.93916e-19)
(0.00730003 3.08263 0)
(0.786396 1.82274 -1.61442e-19)
(1.24808 2.50158 4.12566e-19)
(0.768618 1.96273 -1.24445e-18)
(0.0203405 2.98186 -6.43613e-19)
(0.0361011 3.00261 0)
(-0.0333432 2.87925 0)
(-0.0115117 2.1474 -7.80852e-21)
(-0.0123087 2.11099 4.26242e-22)
(0.0203891 1.99641 -3.45526e-21)
(0.274798 1.37138 1.01693e-18)
(0.219464 0.493712 -6.97558e-19)
(0.0634368 1.98043 7.77612e-19)
(0.1366 1.86911 -9.20117e-19)
(0.178411 1.47296 8.93639e-20)
(0.00182917 3.1188 -1.83871e-18)
(0.0161579 3.11803 1.97164e-18)
(-0.0089063 2.98123 8.14081e-19)
(-0.003417 2.97761 -7.70816e-19)
(-0.0211224 2.88155 -8.29119e-19)
(0.0087015 3.09986 -2.18792e-18)
(0.00243656 3.10603 2.13674e-18)
(0.269294 0.677242 0)
(0.229164 0.665601 -1.2054e-18)
(0.0996392 0.221995 5.33769e-19)
(0.342537 0.896785 1.09117e-18)
(0.182535 0.258781 -1.68256e-18)
(1.15726 0.171996 7.41391e-20)
(1.1674 0.306821 0)
(1.14429 0.120041 -2.2075e-20)
(-0.00872314 2.20585 -1.89656e-21)
(-0.00203415 2.21409 0)
(0.0418626 1.9647 0)
(0.337538 1.27688 -3.67183e-19)
(0.362367 1.10523 -7.90273e-19)
(0.195495 0.352887 1.40505e-18)
(1.00587 -0.0108737 0)
(1.00766 -0.00765997 5.09885e-19)
(-0.128728 1.19984 0)
(-0.080852 1.02466 0)
(1.00222 0.00347873 1.7849e-21)
(1.00364 0.00941381 1.04059e-18)
(-0.237989 2.51496 2.77805e-20)
(-0.220247 2.49375 0)
(0.0365217 3.17948 4.27761e-19)
(0.395764 3.49266 0)
(1.13548 0.65206 -7.32161e-20)
(1.01296 0.0130525 -2.14263e-21)
(1.02118 -0.0104919 0)
(1.00169 0.000105578 6.07054e-23)
(0.0965249 1.35199 0)
(0.147664 2.58366 0)
(0.0218634 1.30652 0)
(-0.0032671 2.62384 5.75919e-20)
(-0.0266809 2.57312 4.63188e-20)
(1.00382 0.0271334 2.42488e-21)
(1.06161 0.00312992 0)
(1.09298 0.0193869 0)
(-0.219528 2.13724 0)
(-0.0478821 2.54549 0)
(0.0211906 1.15889 0)
(0.283915 1.46406 -1.57291e-19)
(1.01124 -0.00966813 0)
(1.0094 -0.0149516 0)
(1.00234 0.000690773 6.50794e-19)
(1.00547 -0.0048542 -7.65825e-19)
(1.00117 -0.00101822 0)
(-0.0997606 1.80162 0)
(-0.0955891 1.26581 0)
(-0.168204 1.58798 0)
(0.00734407 1.12218 0)
(0.023662 1.0239 0)
(0.00819191 0.969803 0)
(1.03414 -0.00664473 0)
(1.02088 0.0157377 -9.77513e-22)
(0.795935 1.26011 2.43612e-19)
(1.00231 0.000260021 -6.50827e-19)
(1.00406 0.00521942 7.59689e-19)
(1.00118 0.00205857 0)
(1.01283 0.0102695 6.45715e-19)
(1.00806 0.00827654 -7.82247e-19)
(1.00861 0.0146833 0)
(-0.122625 2.57141 0)
(-0.194568 2.54762 4.42236e-20)
(-0.136546 2.52609 -4.60481e-20)
(1.21177 0.258552 6.29606e-19)
(1.14948 0.0773605 0)
(0.0456484 3.07744 -9.54123e-19)
(0.0659905 2.85335 -6.96554e-20)
(0.142538 3.19392 1.44955e-18)
(0.137339 3.22287 -2.10719e-19)
(0.135685 3.23553 0)
(0.0207852 3.1378 2.46051e-19)
(0.0774017 3.16081 9.41424e-19)
(0.0700589 3.18704 -4.6373e-19)
(0.0235391 3.12944 0)
(0.657357 0.303789 0)
(0.576358 0.355713 0)
(1.10606 0.684081 1.79541e-19)
(1.10242 0.814814 9.50922e-20)
(1.16465 0.570914 0)
(1.19407 0.512537 0)
(1.0162 0.0132484 -1.20396e-18)
(1.01499 0.0142329 -1.53561e-21)
(1.02511 -0.010045 0)
(1.02316 -0.0119239 0)
(1.00645 0.00261655 0)
(1.01038 0.00364807 0)
(1.00458 0.00186635 0)
(1.0099 0.00606674 0)
(1.00787 0.00603714 0)
(1.00447 0.00459023 0)
(0.0871216 1.34805 0)
(0.0790345 1.32037 0)
(0.115962 1.38316 0)
(0.126788 1.39966 0)
(0.145241 2.60747 0)
(0.186221 2.67115 -4.36907e-19)
(0.0986752 2.66482 0)
(0.0881649 2.66594 2.11539e-19)
(0.0404897 2.68243 -1.89925e-19)
(0.0230223 1.30098 0)
(0.00890249 1.23523 0)
(0.0214118 1.32394 0)
(0.0429277 1.27258 0)
(-0.0103023 1.9897 -1.99467e-20)
(-0.0302491 2.60247 2.22558e-20)
(-0.0129283 2.66548 4.67438e-20)
(-0.0216942 2.67529 0)
(-0.0375452 2.60772 -9.97993e-20)
(-0.036013 2.60154 -5.81492e-20)
(-0.000754843 1.99084 1.5748e-20)
(-0.0241741 2.41355 -2.98394e-20)
(-0.0217871 2.43018 -5.30283e-20)
(1.01254 0.0348357 1.22004e-18)
(1.00837 0.0169401 3.19501e-21)
(1.00509 0.0413765 -1.2273e-18)
(0.98356 0.022378 1.5593e-18)
(1.06253 0.00679259 0)
(1.04782 -0.00901592 0)
(1.09045 0.0302458 0)
(1.0718 0.0103586 0)
(1.06923 -0.0010081 0)
(1.13231 0.0712861 0)
(1.1051 0.0370576 0)
(1.10709 0.0247556 0)
(-0.223116 2.52783 8.98451e-21)
(-0.189821 2.36554 0)
(-0.248034 2.45813 0)
(-0.0708109 2.57518 2.31105e-20)
(-0.0467539 2.58417 -1.23353e-21)
(0.0525522 1.85461 -1.60413e-19)
(-0.00174695 1.72653 1.62083e-19)
(0.0687503 1.37679 0)
(0.0400474 1.37982 0)
(0.0199787 1.35738 0)
(0.0391433 1.17419 0)
(-0.00532011 1.03617 0)
(0.375566 1.47854 2.60306e-19)
(0.412948 1.48577 1.4157e-19)
(0.59556 2.45293 -2.36698e-19)
(0.404368 2.54694 6.96675e-19)
(0.355235 2.07542 6.99961e-20)
(1.02086 -0.00827245 0)
(1.0154 -0.0098214 0)
(1.01485 -0.0156078 0)
(1.00745 -0.00124422 0)
(1.00492 -0.000978101 0)
(1.00776 -0.00478355 0)
(1.00922 -0.0038135 0)
(1.01412 -0.00455398 0)
(1.02156 0.0159077 1.17764e-18)
(1.0182 0.0158123 -1.5113e-18)
(1.02206 0.0178081 -1.18572e-18)
(1.01976 0.0164824 1.4868e-18)
(0.763703 1.30834 0)
(0.697574 1.36313 2.347e-19)
(0.872105 1.2063 7.873e-20)
(0.915102 1.1606 -1.04767e-19)
(1.15728 2.60823 2.75085e-19)
(0.814518 0.0948453 6.05787e-19)
(1.14969 0.0955613 0)
(1.19191 0.183521 -5.04862e-19)
(1.1766 0.14818 -2.12576e-20)
(1.00624 0.136461 0)
(0.138564 2.96244 5.45868e-19)
(0.115336 2.86819 -1.20572e-18)
(0.0269677 2.36999 8.18062e-19)
(0.0930144 0.00512083 -3.66232e-19)
(0.340342 3.42159 -2.11463e-19)
(0.194499 3.3143 0)
(0.237269 3.35653 2.75395e-19)
(0.2466 3.03553 -1.811e-18)
(0.341578 3.19454 0)
(0.00656923 3.12095 4.78141e-20)
(0.0162556 3.12983 -5.64488e-19)
(0.0148198 3.12585 8.30824e-19)
(0.0362005 3.14005 0)
(0.0347979 3.15079 0)
(1.2154 2.6082 0)
(0.530103 0.842483 -5.28916e-19)
(1.03342 0.989225 1.28103e-20)
(0.971863 1.06093 0)
(0.817211 0.960155 -1.15964e-19)
(1.05667 0.877035 2.95019e-20)
(0.368593 0.411987 -9.46685e-19)
(0.700921 0.328714 -2.29408e-20)
(0.680245 0.249814 4.35479e-19)
(0.591645 0.391044 3.22214e-20)
(0.510103 0.367069 -1.29821e-18)
(0.672286 0.340379 0)
(0.701943 0.426216 7.37745e-19)
(0.709043 0.425765 0)
(0.629845 0.371937 0)
(0.606536 0.298676 0)
(0.787381 0.617064 4.31747e-19)
(1.20833 0.279631 -5.70448e-20)
(1.20374 0.416986 0)
(1.21524 0.363695 0)
(0.758766 0.193623 6.49624e-19)
(0.833371 0.536921 -4.01911e-19)
(0.738908 0.513534 -7.08293e-19)
(0.93483 0.420929 -7.81708e-19)
(1.01989 0.0145839 8.10829e-19)
(1.01795 0.0141011 -8.154e-19)
(1.01597 0.0155931 0)
(1.03562 -0.00623499 0)
(1.02944 -0.00879872 -7.63932e-19)
(1.02735 -0.0123256 7.56424e-19)
(1.02509 0.00964991 0)
(1.0238 0.0130434 0)
(1.01139 0.00402328 0)
(1.01432 0.00890082 0)
(1.01507 0.00386618 0)
(1.01418 0.00272418 0)
(0.0622395 1.33264 0)
(0.0643786 1.29392 0)
(0.147675 1.34599 -3.50984e-21)
(0.262371 1.46208 8.06284e-20)
(0.152561 1.43208 1.6591e-19)
(0.183164 1.44129 -8.46743e-20)
(0.16141 1.37314 0)
(0.132603 1.58842 -7.7488e-20)
(0.11097 1.55828 0)
(0.353501 2.02983 -1.01734e-19)
(0.34991 2.36287 6.24792e-19)
(0.184513 1.43943 6.75731e-20)
(0.260777 1.37003 2.19748e-20)
(0.196096 1.35418 1.77915e-20)
(0.270645 1.31006 -9.64654e-20)
(0.239755 1.5733 1.19511e-19)
(0.261232 1.61521 1.08195e-19)
(0.0308217 2.2779 -3.55235e-20)
(0.0373004 2.675 0)
(0.0621574 2.41425 1.47401e-19)
(0.0554734 2.43523 0)
(0.0688144 2.67963 -2.34219e-19)
(0.0495373 2.70433 0)
(0.0216358 1.41581 7.83409e-21)
(0.0243538 1.46382 0)
(0.0255348 1.38233 0)
(0.0181843 1.38743 -8.94674e-21)
(-0.00430155 2.65381 -2.17922e-20)
(0.0253787 2.6996 2.17036e-19)
(0.0101407 2.72244 1.51209e-21)
(-0.00521173 1.84687 1.9497e-20)
(-0.0162557 1.66482 -8.6633e-21)
(0.0479581 1.28116 0)
(0.0371172 1.14559 0)
(0.040111 1.56975 -2.45761e-22)
(0.0254927 1.44599 -5.46319e-21)
(0.0292213 1.51106 7.07856e-21)
(0.0348608 1.59173 0)
(-0.0812806 2.35901 6.63393e-20)
(-0.0990388 2.55281 -3.70606e-20)
(-0.0303525 2.483 -6.75738e-21)
(-0.021346 1.8527 -2.35281e-20)
(-0.0501965 2.492 -1.18353e-20)
(-0.0237113 2.44063 6.33795e-20)
(1.02026 0.0203768 -8.05666e-19)
(1.01674 0.0255549 8.08095e-19)
(1.0152 0.0162447 0)
(1.01557 0.06454 1.10577e-18)
(0.994705 0.0555628 -1.2716e-18)
(0.956702 0.0433902 1.42251e-18)
(1.01714 0.100381 -1.516e-19)
(1.04183 -0.00632066 0)
(1.04982 -0.00233626 7.2921e-19)
(1.03804 -0.0104179 -7.31119e-19)
(1.0698 0.0387385 -4.34537e-20)
(1.06339 0.0211388 3.74876e-19)
(1.06229 0.0498619 0)
(1.05363 0.0438442 -1.34451e-19)
(1.03251 0.0388557 0)
(1.02633 0.0351708 0)
(1.0277 0.0126768 0)
(1.02443 0.0154319 0)
(1.03874 0.0297737 2.76965e-19)
(1.03902 0.0252432 -6.11273e-19)
(1.05044 0.0318935 -2.94376e-19)
(1.0469 0.0321618 -3.23321e-19)
(1.06786 0.0563533 6.33403e-19)
(1.09188 0.0438359 0)
(1.09888 0.086945 0)
(-0.0655321 2.37562 1.00266e-19)
(-0.113903 2.30035 1.28141e-20)
(-0.0621873 2.27487 0)
(-0.122121 2.51097 -9.85485e-20)
(-0.196447 2.51652 -2.14044e-20)
(-0.161147 2.5139 -5.75339e-23)
(-0.0372466 2.6112 5.02389e-20)
(-0.0642996 2.54775 -4.01304e-21)
(-0.0397235 2.51636 1.83367e-20)
(-0.0429445 2.59883 -2.52881e-20)
(-0.040432 2.60283 -9.64039e-22)
(0.124126 1.60349 4.63793e-21)
(0.0647754 1.83348 -9.03399e-20)
(0.365404 1.41835 -1.0888e-19)
(0.363275 1.35958 2.70487e-20)
(0.644878 1.40843 -2.26984e-19)
(0.51164 1.47279 -1.36834e-19)
(0.563643 1.44621 0)
(0.591145 2.42816 2.10327e-19)
(0.658121 2.4194 3.35965e-19)
(0.410772 2.5229 8.17674e-20)
(0.405442 2.55403 -6.20105e-19)
(0.514973 2.50176 6.02395e-19)
(0.550258 2.46652 0)
(0.488414 2.52044 -5.60411e-19)
(0.248274 2.59732 1.16956e-18)
(0.353535 2.5717 -8.34709e-20)
(0.284663 2.65817 -1.60318e-18)
(0.939834 2.38116 7.18487e-19)
(0.832997 2.38653 0)
(1.01095 0.000373748 2.64021e-20)
(1.0153 -0.00557212 -2.14713e-20)
(1.01762 -0.003683 -3.91997e-19)
(1.01494 -0.00111339 3.94034e-19)
(1.01232 0.000932262 0)
(0.633531 1.27731 0)
(0.653548 1.17236 0)
(0.754244 1.07984 0)
(0.644481 1.13959 0)
(1.186 2.62295 5.95143e-20)
(1.07571 2.36732 0)
(0.840181 2.18695 3.75288e-21)
(0.82782 2.45405 0)
(0.922998 2.5426 -4.15843e-19)
(0.959143 2.49756 0)
(0.824642 0.147689 0)
(0.79574 0.129124 1.66434e-19)
(0.924841 0.126935 9.5821e-19)
(0.84487 0.122183 -3.61595e-19)
(0.824215 0.0646819 -1.10223e-18)
(1.0698 0.22201 -9.32498e-19)
(0.98975 0.278458 -1.55232e-20)
(0.915128 0.273727 8.94984e-19)
(1.00257 0.20607 7.45431e-19)
(0.950252 0.167973 -1.27444e-18)
(0.918365 0.171132 1.59544e-19)
(0.948295 0.233819 -3.4204e-19)
(0.927335 0.19515 0)
(0.996617 0.168591 -6.28337e-19)
(1.04497 0.171931 0)
(1.04232 0.198542 0)
(1.09781 0.106364 2.96937e-19)
(1.07177 0.161674 -1.36084e-20)
(1.06368 0.225329 -4.74949e-19)
(1.09422 0.192286 0)
(1.02279 0.0432455 6.25178e-19)
(1.04182 0.0537981 7.78483e-19)
(1.0328 0.0409218 -6.20226e-19)
(1.04235 0.0587497 -5.2158e-19)
(1.01686 0.0661874 -7.82747e-19)
(0.991671 0.142483 0)
(1.00119 0.0961199 0)
(0.972568 0.0619073 -5.06383e-19)
(0.924911 0.0807833 1.99662e-19)
(1.03988 0.0948216 7.22634e-19)
(1.06916 0.108304 -8.5632e-19)
(1.07423 0.140931 7.6505e-19)
(1.03381 0.131996 0)
(1.0742 0.0962534 0)
(1.05876 0.0797296 -3.47954e-19)
(1.0468 0.0876477 -5.91907e-19)
(0.582068 1.0816 1.36442e-19)
(0.612473 1.41245 -3.87832e-20)
(1.15666 2.74085 -2.21581e-19)
(1.22309 3.08219 -3.72055e-22)
(1.24897 2.72243 -1.19593e-19)
(1.27894 2.70649 -3.62097e-20)
(1.20716 2.34619 -1.00823e-20)
(1.21033 2.98586 -8.66974e-20)
(1.22987 2.9508 2.24968e-19)
(1.21412 3.23597 -1.47324e-19)
(1.37536 2.96751 2.03765e-19)
(1.36604 2.88579 0)
(0.537307 0.849676 -4.90849e-20)
(0.138929 1.26107 5.72445e-19)
(0.528475 0.468613 6.1269e-19)
(0.362848 0.21963 6.75543e-19)
(0.530639 0.39705 7.32087e-19)
(0.539973 0.485748 -1.20468e-18)
(0.543143 0.492777 9.84674e-19)
(0.497029 0.417368 -3.69368e-19)
(0.425024 0.35476 8.40242e-19)
(0.762301 0.250659 1.12994e-18)
(0.723062 0.288121 0)
(0.717325 0.219972 9.88808e-21)
(0.720551 0.513542 3.88043e-19)
(0.692206 0.482949 -1.41499e-18)
(0.612012 0.485087 1.65383e-20)
(0.624556 0.465615 0)
(0.665651 0.737728 4.01407e-19)
(0.814365 0.770529 4.07804e-19)
(0.742634 0.853859 -4.77007e-19)
(0.8561 0.802293 -1.6478e-19)
(0.889846 0.845164 -4.13437e-20)
(0.898242 0.846693 4.23209e-20)
(0.827186 0.642741 -7.1748e-19)
(0.9042 0.698243 1.5309e-19)
(0.961772 0.712417 0)
(0.951809 0.688366 -2.12281e-19)
(1.01489 0.319258 2.25648e-19)
(1.12349 0.290405 3.1253e-19)
(1.05469 0.260266 3.81085e-19)
(0.997342 0.353334 -4.53293e-19)
(1.0366 0.420122 0)
(1.08944 0.406501 0)
(0.902879 0.349276 4.77728e-21)
(0.839559 0.282716 0)
(0.864705 0.275907 4.21641e-19)
(0.899389 0.280192 -6.09701e-21)
(0.926464 0.424127 2.17866e-18)
(0.882328 0.485333 5.62216e-19)
(0.888109 0.449861 -5.97847e-19)
(0.815959 0.435595 -6.40134e-19)
(0.798322 0.430963 3.84721e-19)
(0.769696 0.418635 -3.78233e-19)
(1.02701 -0.000699109 6.52679e-19)
(1.02 -0.000347129 0)
(1.01852 0.000583246 4.2553e-19)
(1.02156 -0.00194888 -3.38694e-21)
(1.02231 0.00393308 4.68149e-19)
(1.02048 0.0108513 -9.80421e-19)
(1.02147 0.0102655 0)
(1.02076 0.0105903 -2.04297e-19)
(1.01602 0.00745767 5.12447e-19)
(1.01678 0.0102292 -2.55673e-19)
(1.01748 0.00956683 1.88343e-19)
(0.0319832 1.31473 0)
(0.0390282 1.35157 0)
(0.0491716 1.31332 0)
(0.0478539 1.27513 0)
(0.0713635 1.36693 -1.66073e-20)
(0.0780971 1.33977 1.18432e-20)
(0.11128 1.49464 -1.93054e-20)
(0.0856878 1.3377 1.97802e-21)
(0.0327525 1.44839 -1.74609e-20)
(0.0367163 1.43854 1.38047e-20)
(0.0654393 1.3506 -7.84883e-21)
(0.0594262 1.35252 -2.43099e-20)
(0.053049 1.3314 2.53531e-21)
(0.0411326 1.35241 8.35572e-22)
(0.103752 2.38692 -1.62809e-19)
(0.0930764 2.43132 0)
(0.168961 2.06428 1.10182e-19)
(0.106846 1.71088 4.37054e-20)
(0.231222 2.05577 -8.97564e-20)
(0.209191 2.45268 0)
(0.26849 2.40421 -5.9324e-19)
(0.306068 2.40247 4.21187e-19)
(0.231762 2.01439 -3.34511e-19)
(0.15258 2.18189 1.67017e-19)
(0.145814 2.30203 0)
(0.00903007 1.88439 -2.3738e-20)
(-0.0172024 2.40659 -8.57284e-20)
(-0.00254364 2.16521 0)
(0.00682746 2.46824 -1.49733e-20)
(0.019455 2.31645 2.33452e-20)
(0.0172903 1.39998 -1.9159e-21)
(0.0329748 1.38232 4.45004e-20)
(0.0495066 1.40753 -1.98934e-20)
(0.0100132 1.40314 -7.20242e-21)
(0.0213679 1.42006 0)
(0.0516536 1.38743 0)
(0.0689429 1.19523 -4.50908e-20)
(0.105436 1.37866 1.18624e-20)
(0.0873658 1.37645 0)
(0.0507643 1.25035 -2.94265e-20)
(0.0385244 1.03773 6.52888e-20)
(1.04018 0.0108361 0)
(1.04584 0.00706601 -6.84652e-20)
(1.03836 0.0200827 -4.92504e-19)
(1.0475 0.0192113 0)
(1.05167 0.0191802 0)
(1.03635 0.0105744 -6.46546e-21)
(1.03122 0.0104353 7.90609e-19)
(1.03193 0.0153405 9.59719e-19)
(1.02593 0.0193552 0)
(1.02336 0.0198525 0)
(1.03504 0.0234184 4.91769e-19)
(1.02637 0.0248487 0)
(1.02498 0.0247328 0)
(-0.0243844 2.04912 0)
(0.0428178 1.83046 1.59323e-20)
(0.0342714 1.89453 -2.27264e-20)
(0.0846633 1.39666 0)
(0.0838909 1.6554 -1.75629e-20)
(0.110296 1.52329 3.12577e-20)
(0.0908204 1.43503 0)
(0.396593 1.68457 0)
(0.364325 1.28746 -5.85025e-20)
(0.306835 1.33927 0)
(0.420209 1.28781 -3.06736e-20)
(0.464331 1.44596 0)
(0.445396 1.39037 2.36548e-20)
(1.03394 2.68944 -1.5341e-20)
(0.962196 2.41139 -9.56853e-19)
(0.910735 2.18664 1.04712e-18)
(0.846067 2.37834 2.40234e-19)
(0.846277 2.50256 0)
(0.916607 2.49688 0)
(0.923161 2.37493 0)
(0.900676 2.36161 -9.33339e-19)
(0.692848 2.47363 -3.86339e-19)
(0.802316 2.46456 -9.55304e-20)
(0.813821 2.43639 7.29599e-20)
(0.693008 2.39468 0)
(0.796774 2.39069 0)
(0.755649 2.40314 -3.63859e-19)
(0.769857 2.49395 0)
(0.61292 1.09581 0)
(0.482887 0.929646 -4.92495e-19)
(0.551698 0.964836 -3.14044e-20)
(0.522668 1.0586 0)
(0.521683 1.00765 7.39728e-19)
(0.76663 0.88006 -1.33239e-19)
(0.778464 1.01104 0)
(0.751382 0.968432 1.94211e-19)
(0.639851 1.03437 0)
(0.644671 0.944402 0)
(1.16475 2.76175 -2.29355e-19)
(1.14234 2.82551 -9.54646e-20)
(0.932551 2.34615 9.68275e-20)
(0.900218 2.32536 -7.27821e-20)
(1.12971 2.73495 0)
(1.08315 2.70517 9.91834e-20)
(1.08935 2.48748 -3.16652e-19)
(0.98483 2.23419 -3.05652e-20)
(0.502736 1.3625 0)
(0.51525 1.07925 -1.20404e-19)
(0.562871 1.16123 0)
(0.860553 0.21197 0)
(0.802768 0.1671 0)
(0.756732 0.144432 0)
(0.855065 0.220772 -6.63646e-19)
(0.779516 0.213299 3.89848e-19)
(0.936793 0.0672061 -4.12343e-19)
(0.950279 0.111645 0)
(0.927974 0.118282 1.77901e-19)
(0.870779 0.0940454 7.13362e-19)
(0.850544 0.0547066 -4.46011e-19)
(1.16165 3.3616 -7.30014e-19)
(1.20912 3.28085 0)
(1.16031 3.38968 -1.50234e-18)
(0.647826 3.55059 1.27679e-18)
(0.872523 3.11814 8.35572e-20)
(0.511247 0.854536 5.92316e-19)
(0.429326 0.848046 0)
(0.339178 0.50239 -1.52029e-19)
(0.443616 0.686412 -8.57642e-19)
(0.531153 0.474956 -2.10584e-19)
(0.505941 0.526272 2.38525e-19)
(0.653632 0.539698 5.22508e-19)
(0.680838 0.55624 0)
(0.634198 0.622202 0)
(0.591789 0.559198 0)
(0.963165 0.596771 1.04643e-19)
(0.884901 0.535006 -5.469e-19)
(0.90814 0.56725 4.17711e-19)
(0.943313 0.502438 -4.24068e-19)
(1.0468 0.478095 0)
(1.05691 0.566115 -1.06682e-19)
(0.83916 0.386254 -8.77169e-19)
(0.843235 0.371093 1.39954e-18)
(0.791024 0.386377 6.84539e-19)
(0.787387 0.354408 -7.03071e-19)
(0.838705 0.308197 -5.48053e-19)
(0.793094 0.307188 6.73491e-19)
(1.02685 0.00535655 -5.01262e-19)
(1.02647 0.00569104 1.02397e-18)
(1.02918 -0.000600468 6.32705e-19)
(1.03323 0.000590128 -7.62197e-19)
(1.0328 0.00796149 0)
(1.03003 0.00868545 -1.23685e-18)
(0.0548342 1.6428 2.44685e-20)
(0.0401824 1.56766 0)
(0.0805464 1.69536 1.4103e-19)
(0.0943981 1.67743 -1.23939e-19)
(0.0794789 1.51246 3.62207e-20)
(0.07984 1.49726 0)
(0.0100438 1.71526 0)
(0.0232215 1.55397 -2.02972e-21)
(0.0606692 1.48124 1.82624e-21)
(0.0428388 1.63516 1.99667e-20)
(0.0125793 1.9198 -4.71509e-21)
(-0.012624 1.94317 -2.12286e-20)
(0.500301 1.37598 -2.61165e-19)
(0.495094 1.38197 -2.97363e-19)
(0.443551 1.28563 -2.67345e-20)
(0.438537 1.29521 7.46822e-21)
(0.625823 1.28977 0)
(0.54149 1.37725 1.00997e-19)
(0.559794 1.38571 -9.83659e-20)
(0.451364 1.27386 2.57523e-20)
(0.510062 1.2274 0)
(0.564809 1.19734 0)
(0.659653 2.43333 5.67623e-19)
(0.670416 2.46893 1.2524e-18)
(0.717338 2.48267 -8.61958e-19)
(0.617931 2.46187 -2.05089e-19)
(0.563826 2.55198 2.80742e-19)
(0.512718 2.52504 -7.45409e-19)
(0.974926 2.3783 -5.85468e-19)
(1.01231 2.39329 0)
(0.920948 2.16573 -6.7768e-19)
(1.05292 2.68483 0)
(1.05516 2.67158 0)
(0.61249 2.27836 -1.00851e-19)
(1.04187 3.16463 1.4882e-19)
(0.913098 3.03505 -5.71259e-20)
(0.283013 0.919941 0)
(0.32318 0.781676 -3.14385e-19)
(0.479345 0.735228 -1.24801e-18)
(0.390963 2.02656 0)
(0.468584 2.78739 -5.81705e-20)
(0.424338 2.5516 0)
(0.677627 0.684404 -8.51206e-19)
(0.759228 0.681589 1.16485e-18)
(0.778737 0.624634 7.38811e-19)
(0.658853 0.646532 1.10661e-19)
(0.714916 0.599784 -4.59701e-19)
(1.00374 2.76826 -1.13156e-19)
(1.04094 2.82421 -1.52846e-19)
(0.64024 2.15368 6.41934e-19)
(0.596434 1.7209 -4.59245e-19)
(0.699606 1.91036 -3.9468e-19)
(0.989543 2.45112 -1.13985e-19)
(0.994637 2.4443 2.87904e-19)
(0.66037 1.84999 2.72859e-20)
(0.451087 1.33893 5.51271e-19)
)
;

boundaryField
{
    wall-4
    {
        type            noSlip;
    }
    velocity-inlet-5
    {
        type            fixedValue;
        value           uniform (1 0 0);
    }
    velocity-inlet-6
    {
        type            fixedValue;
        value           uniform (0 3 0);
    }
    pressure-outlet-7
    {
        type            zeroGradient;
    }
    wall-8
    {
        type            noSlip;
    }
    frontAndBackPlanes
    {
        type            empty;
    }
}


// ************************************************************************* //
