/*--------------------------------*- C++ -*----------------------------------*\
| =========                 |                                                 |
| \\      /  F ield         | OpenFOAM: The Open Source CFD Toolbox           |
|  \\    /   O peration     | Version:  2412                                  |
|   \\  /    A nd           | Website:  www.openfoam.com                      |
|    \\/     M anipulation  |                                                 |
\*---------------------------------------------------------------------------*/
FoamFile
{
    version     2.0;
    format      ascii;
    arch        "LSB;label=32;scalar=64";
    class       volVectorField;
    location    "2";
    object      U;
}
// * * * * * * * * * * * * * * * * * * * * * * * * * * * * * * * * * * * * * //

dimensions      [0 1 -1 0 0 0 0];

internalField   nonuniform List<vector> 
39
(
(0.525342 1.21736 -3.71036e-19)
(0.481935 1.30513 1.75626e-18)
(0.515441 1.23637 3.41595e-19)
(0.233916 1.39735 7.07439e-19)
(0.312699 1.32877 -4.79947e-19)
(0.446734 1.33946 9.7302e-19)
(0.448472 1.28388 -1.5155e-18)
(0.310197 1.38703 -2.47579e-19)
(0.362917 1.35329 -6.0983e-19)
(0.384714 1.29821 1.11598e-18)
(0.238286 1.48677 -1.75752e-19)
(0.320604 1.67738 1.01312e-19)
(0.283673 1.48676 1.82916e-19)
(0.350974 1.47302 2.42139e-19)
(0.478944 1.46085 0)
(0.480085 1.53158 0)
(0.550395 1.5134 -7.68e-19)
(0.430754 1.66724 0)
(0.381546 1.65866 0)
(0.525142 1.44826 2.78953e-19)
(0.532495 1.50059 0)
(0.541913 1.49864 0)
(0.556469 1.46441 0)
(0.541359 1.44859 -1.02393e-18)
(0.372547 1.52567 -5.63845e-19)
(0.427645 1.49274 -1.40968e-19)
(0.461223 1.50244 1.15957e-19)
(0.379341 1.48485 0)
(0.449037 1.48102 0)
(0.409246 1.48495 -2.97248e-19)
(0.418959 1.48311 0)
(0.502326 1.61681 -9.01761e-19)
(0.511328 1.64913 3.51924e-20)
(0.395775 1.51142 8.25143e-19)
(0.302902 1.48667 1.34995e-18)
(0.366 1.47663 -9.1341e-19)
(0.253361 1.50983 -1.57544e-19)
(0.33454 1.51394 2.99663e-19)
(0.237157 1.4976 -3.6295e-19)
)
;

boundaryField
{
    wall-4
    {
        type            noSlip;
    }
    velocity-inlet-5
    {
        type            fixedValue;
        value           nonuniform List<vector> 0();
    }
    velocity-inlet-6
    {
        type            fixedValue;
        value           nonuniform List<vector> 0();
    }
    pressure-outlet-7
    {
        type            zeroGradient;
    }
    wall-8
    {
        type            noSlip;
    }
    frontAndBackPlanes
    {
        type            empty;
    }
    procBoundary23to18
    {
        type            processor;
        value           nonuniform List<vector> 3((0.541077 1.31839 0) (0.551415 1.46055 1.08538e-18) (0.562645 1.52028 0));
    }
    procBoundary23to21
    {
        type            processor;
        value           nonuniform List<vector> 3((0.348305 1.68775 -3.58455e-19) (0.520506 1.60491 -7.95608e-19) (0.507888 1.68775 -2.33925e-19));
    }
    procBoundary23to22
    {
        type            processor;
        value           nonuniform List<vector> 4((0.238087 1.32466 -2.28283e-19) (0.258719 1.5096 0) (0.290779 1.7072 0) (0.268675 1.50463 5.63546e-19));
    }
}


// ************************************************************************* //
