/*--------------------------------*- C++ -*----------------------------------*\
| =========                 |                                                 |
| \\      /  F ield         | OpenFOAM: The Open Source CFD Toolbox           |
|  \\    /   O peration     | Version:  2412                                  |
|   \\  /    A nd           | Website:  www.openfoam.com                      |
|    \\/     M anipulation  |                                                 |
\*---------------------------------------------------------------------------*/
FoamFile
{
    version     2.0;
    format      ascii;
    arch        "LSB;label=32;scalar=64";
    class       volScalarField;
    location    "5";
    object      p;
}
// * * * * * * * * * * * * * * * * * * * * * * * * * * * * * * * * * * * * * //

dimensions      [0 2 -2 0 0 0 0];

internalField   nonuniform List<scalar> 
918
(
0.240529
1.04725
0.00644413
0.241324
0.00146954
1.01419
-0.691503
0.384898
0.223328
-0.103889
0.0239431
0.206546
0.878285
0.644424
-1.51477
0.0226957
0.351988
-0.773392
0.20368
0.0125698
0.610981
0.234337
0.232661
0.21076
0.259631
0.669392
0.758467
0.00207042
0.00157239
0.00529491
-0.00158783
0.00114319
0.00794777
0.897836
0.948906
0.971619
0.194198
-0.310435
-0.473462
-0.601051
-0.526368
-0.800236
0.371345
0.375534
-0.421553
0.390718
0.41438
0.201565
0.220466
0.221438
0.223803
0.225264
0.226336
0.274286
-0.131249
-0.20519
-0.0574407
-0.0386444
0.0836361
0.02411
0.0316622
0.0281434
0.0321025
0.148425
0.203377
0.2033
0.213891
0.21712
0.986766
0.958529
0.984312
0.900215
0.915223
0.855976
0.82748
0.667331
0.686334
0.633815
0.621132
-1.96748
-2.91132
-0.922091
-0.613467
0.00273271
0.0282996
0.0334094
0.341509
0.352494
0.347556
0.3636
0.67699
-0.669758
-0.894117
0.213896
0.208385
0.226895
0.228792
0.218721
0.220079
0.0175348
0.0266032
0.00480587
0.0125769
0.0108805
0.554692
0.523868
0.204349
0.204292
0.228077
0.23353
0.232024
-0.00367837
0.269162
0.293645
0.418094
0.616593
0.62909
0.635433
0.734023
0.698545
0.794765
0.819357
0.00621309
0.00157309
0.0126232
0.0096983
0.0145024
0.184799
0.182028
0.200262
0.19615
0.192284
-0.357476
-0.427296
-0.215455
-0.0694224
-0.403329
-0.522665
-0.716411
-0.645339
-0.895872
0.76709
0.356581
0.370875
-0.349416
-0.321336
-0.453897
-0.29679
-0.384503
0.198778
0.202966
0.201201
0.204997
0.198145
0.208701
0.224369
0.221608
0.222302
0.295948
0.355139
0.237879
0.213044
-0.418651
-0.210832
-0.401604
-0.0219634
-0.0109453
0.0970885
0.108749
0.0714735
0.0686357
0.0121838
0.0221282
0.0200269
0.0361694
0.0295665
0.143189
0.132968
0.155061
0.170188
0.196398
0.200737
0.198336
0.200646
0.778009
0.801888
0.80856
0.782139
-3.86948
-6.42835
-0.256514
-0.078249
0.000204333
0.00308645
0.00199189
-0.000480235
0.00574491
0.000543649
0.050013
0.0447818
0.0369615
0.0348852
0.327783
0.333895
0.657879
0.718541
0.604677
0.589581
0.201172
0.203745
0.212298
0.208109
0.0288175
0.0264236
0.0255868
0.416653
0.473868
0.453751
-0.0408221
-0.129209
0.0428227
0.0654996
0.316599
0.304905
0.318462
0.497538
0.540173
0.828319
0.846585
0.843388
0.849547
0.892619
0.908154
0.875231
0.172507
0.17695
0.171248
0.206195
0.196107
0.20473
0.196942
0.199493
0.199914
-0.489442
-0.735656
0.530647
0.371554
0.055448
0.266514
0.753307
0.805857
0.350941
0.357114
0.361918
-0.235101
-0.325251
0.186444
0.162992
0.0888933
0.119668
0.102831
0.748838
0.711897
0.758608
0.732798
0.699974
0.723747
-0.645256
-1.98211
-1.12916
0.351936
0.132113
0.226244
0.0647128
0.0490451
0.0536471
0.703777
0.763066
0.387423
0.492174
0.483559
0.586643
0.621408
0.668807
0.592677
0.630154
0.666639
0.651003
0.698145
0.579727
0.679727
0.768066
0.786066
-0.147536
-0.186089
-0.259328
0.116702
0.151494
0.133244
0.736508
0.753564
0.78428
0.202225
0.210379
0.00991606
0.0179196
0.224045
0.227053
0.00630099
0.0093215
0.223329
-1.34006
-0.106388
0.209354
0.201588
0.216264
-0.0689593
0.26198
0.034978
0.0937984
0.0656602
0.201244
0.157802
0.129282
0.0104972
0.0182174
0.0174016
-0.316558
0.210009
0.200473
0.217519
0.220278
0.223939
0.0130569
0.0116778
0.00581168
0.0143231
0.0160047
0.0185012
0.186429
0.194628
-0.219924
0.214552
0.218125
0.219714
0.208871
0.221756
0.214542
0.0175678
0.0114882
0.0080395
-0.0470578
0.0676999
0.540463
0.657092
0.513956
0.190713
-0.150666
0.400707
0.468631
0.347713
0.534061
0.331582
0.363458
-0.0537582
-0.166088
-0.0743363
-0.12946
0.206098
0.20313
0.196601
0.19873
0.214699
0.212447
0.212436
0.214415
0.215099
0.212865
-0.0229471
-0.0376995
-0.0858654
-0.145853
0.286392
0.347885
0.211027
0.222337
0.136269
0.0395569
0.0343427
0.0344829
0.0223543
0.0645063
0.0685491
0.0770587
0.0729508
0.0476657
0.0492318
0.0618584
0.0632192
0.0686829
0.199778
0.197893
0.203244
0.214797
0.164517
0.166997
0.140546
0.157886
0.144222
0.101886
0.122637
0.102541
0.0094297
0.00934292
0.00940885
0.018831
0.0309489
0.0192788
0.0159349
0.0109106
0.0108255
0.0138062
0.024481
0.0261457
-0.262469
-0.385127
0.634059
0.542473
0.327723
0.20683
0.211296
0.200139
0.206237
0.216557
0.224552
0.220222
0.208093
0.198284
0.197002
0.195191
0.196336
-0.089469
-0.281278
-0.12962
-0.229992
-0.350536
0.297817
0.0701778
0.0285333
0.0129003
0.203523
0.770736
0.651738
0.625958
0.624381
-0.877463
-0.352411
-0.7235
-0.0904763
-0.485524
0.514568
0.563442
0.579092
0.521556
0.481034
-0.467331
-0.0736373
-0.204523
-0.150473
-0.0306803
-0.106016
0.459488
0.323403
0.337381
0.353668
0.392936
0.32294
0.294542
0.296292
0.339572
0.348801
0.129767
-0.0224949
-0.058717
-0.0919076
0.326178
0.177476
0.231949
0.179154
0.200506
0.201994
0.204531
0.194804
0.194881
0.196493
0.195671
0.198426
0.206043
0.204307
0.204964
0.206828
-0.0182401
-0.0130744
-0.0212416
-0.189161
-0.17541
-0.263763
-0.0971587
0.127936
0.0979926
0.283211
0.378496
0.0688699
-0.0850872
-0.0527173
0.0238853
0.146483
0.135115
0.10632
0.149197
0.169685
0.140959
0.195538
0.181568
0.042617
0.0582962
0.0404589
0.0340462
0.0978368
0.11664
0.112913
0.0495821
0.0550463
0.0388404
0.040434
0.076334
0.0556315
0.0676122
0.0731653
0.0227476
0.0233512
0.0341368
0.0379714
0.0408973
0.0367685
0.193677
0.196134
0.198918
0.205373
0.212526
0.229558
0.204262
0.18185
0.170858
0.177464
0.156246
0.172657
0.161163
0.174421
0.182918
0.1945
0.1934
0.19451
0.182065
0.18075
0.180738
0.182068
0.156053
0.137766
0.131334
0.021726
0.0159603
0.0180057
0.0209643
0.0122872
0.0123121
0.048807
0.0359599
0.044044
0.0337442
0.0467388
0.0236211
0.0246917
-0.0837707
0.042194
-0.231774
-0.286432
-0.367752
0.623934
0.676991
0.541363
0.45974
0.475947
0.566422
0.599049
0.375408
0.464768
0.44402
0.684295
0.709371
0.187886
0.195077
0.203061
0.194641
0.193999
0.0320739
0.126576
0.0291937
0.0699615
-0.0816233
-0.149946
0.522248
0.457566
0.513556
0.443966
0.289302
0.306618
0.248769
0.279937
0.286429
0.125648
0.197329
0.235605
0.201555
0.23157
0.251843
0.221247
0.243323
0.209856
0.182374
0.179039
0.126948
0.1367
0.117487
0.112503
0.191343
0.17991
0.181241
0.178433
0.198026
0.227591
0.218161
0.229249
0.242101
0.180696
0.152572
0.156408
0.176157
0.148986
0.157895
0.169226
0.252424
0.195968
-0.0310923
-0.617582
-0.515521
-0.461984
-0.572579
-0.480482
-0.220089
-1.0145
-0.806589
-1.31826
-0.278378
0.722896
0.410043
0.47868
0.395004
0.343602
0.339494
0.432034
0.43782
0.312772
0.322461
0.331113
0.242025
0.281172
0.304977
0.312037
0.0164298
0.0604595
0.0159526
0.0497433
-0.0277749
-0.0155037
0.116912
0.0796118
0.0224956
0.0166602
0.15975
0.0565555
0.104943
0.153327
0.110086
0.0759337
0.211071
0.284168
0.268267
0.237203
0.169948
0.170167
0.200789
0.235579
0.251359
0.27952
0.194345
0.198973
0.198826
0.198211
0.195626
0.198081
0.198154
0.201154
0.202646
0.20621
0.205637
0.0259811
0.0358141
0.00736647
0.0139732
0.038334
0.0155207
0.060001
0.0487186
0.047309
0.0485942
0.0334641
0.00464267
0.0174366
0.0348314
0.161322
0.184034
0.188474
0.138099
0.233513
0.342796
0.383024
0.332104
0.20942
0.240676
0.282151
0.0808831
0.0918379
0.0797231
0.102542
0.0915611
0.0395308
0.0364979
0.0354183
0.0472881
0.0430782
0.0333203
0.0292108
0.0284448
0.0297682
0.0346631
0.0320017
0.184111
0.176068
0.167803
0.164369
0.163751
0.18152
0.188129
0.186695
0.191987
0.19349
0.186588
0.192226
0.193196
0.0383019
0.0241293
0.0255431
0.0277672
0.0232523
0.0343371
0.0305858
0.284047
0.156774
0.246566
0.0998129
-0.138592
-0.0464676
0.522078
0.622179
0.611704
0.664321
0.59482
0.575958
0.62047
0.711641
0.429945
0.554777
0.502118
0.658151
0.657452
0.700277
0.559821
0.121291
-0.458274
-0.12485
0.0755949
-0.348065
-0.000777233
-0.000220074
-0.0180661
-0.00730181
-0.0705706
0.17593
0.241091
0.300718
0.426586
0.213726
0.341989
0.0502907
0.137079
0.347247
0.335843
0.333374
0.285621
0.30575
0.321632
0.289896
0.315841
0.251492
0.246412
0.253987
0.269866
0.260045
-1.13086
-1.12624
-1.81944
-1.33703
-1.05894
-0.596527
-0.629893
0.133927
0.033477
0.307488
0.278664
0.251116
0.208021
0.14052
0.225615
0.0605666
0.154184
0.133711
0.132897
0.0616134
-0.00954635
0.250084
0.247149
0.274206
0.295114
0.27811
0.299812
0.192726
0.189566
0.195597
0.189777
0.177974
0.179231
0.109787
0.0849139
0.124924
0.107584
0.0647263
0.055257
0.0405594
0.0378697
0.0284363
0.0261854
0.0412954
0.0415
0.300476
0.314991
0.148199
0.250489
0.0107669
-0.0653762
-0.109167
0.0858155
0.141717
0.175805
0.471182
0.572036
0.515079
0.536265
0.436985
0.461399
0.52323
0.312828
0.430312
0.402163
0.499296
-0.979155
-1.07096
-1.05059
0.12896
0.00240226
-0.541622
-0.824045
-0.824241
-0.455381
0.0945597
0.0813137
0.118671
0.131893
0.146132
-0.812048
-0.573216
-0.913647
-0.697684
-0.0509982
-0.368716
-0.139043
-0.522891
-0.329989
)
;

boundaryField
{
    wall-4
    {
        type            zeroGradient;
    }
    velocity-inlet-5
    {
        type            zeroGradient;
    }
    velocity-inlet-6
    {
        type            zeroGradient;
    }
    pressure-outlet-7
    {
        type            fixedValue;
        value           uniform 0;
    }
    wall-8
    {
        type            zeroGradient;
    }
    frontAndBackPlanes
    {
        type            empty;
    }
}


// ************************************************************************* //
