/*--------------------------------*- C++ -*----------------------------------*\
| =========                 |                                                 |
| \\      /  F ield         | OpenFOAM: The Open Source CFD Toolbox           |
|  \\    /   O peration     | Version:  2412                                  |
|   \\  /    A nd           | Website:  www.openfoam.com                      |
|    \\/     M anipulation  |                                                 |
\*---------------------------------------------------------------------------*/
FoamFile
{
    version     2.0;
    format      ascii;
    arch        "LSB;label=32;scalar=64";
    class       surfaceScalarField;
    location    "5";
    object      phi;
}
// * * * * * * * * * * * * * * * * * * * * * * * * * * * * * * * * * * * * * //

dimensions      [0 3 -1 0 0 0 0];

oriented        oriented;

internalField   nonuniform List<scalar> 
1300
(
3.75095
5.62643
-6.44986
3.75095
-6.33034
5.62643
-5.48748
5.48748
-1.66132
1.66132
1.88116
1.86979
-5.49453
5.49453
-5.46402
5.46402
-2.99579
2.99579
-5.24491
5.24491
-5.06681
5.06681
4.76215
-4.76215
-5.20775
5.20775
-2.15353
2.15353
-6.0981
6.0981
3.16578
-3.16578
-5.49493
5.49493
-0.570571
0.570571
-0.554845
4.3058
3.19611
3.19611
-2.81096
2.81096
-4.85569
4.85569
6.21898
-6.21898
9.73462
-9.73462
-3.28475
-3.32227
1.36762
-8.09149
-4.96272
-4.96272
-8.44077
8.44077
-2.81434
2.81209
3.13783
-3.13783
-1.07794
1.07794
-5.11939
-0.368096
-5.11939
5.88701
-0.399523
5.88701
-1.80861
0.147287
-1.80861
4.24566
-4.24566
1.52152
0.139809
1.52152
3.10309
-3.10309
-1.88027
3.76143
1.87069
-1.86236
6.16816
-1.8886
3.75839
-4.94218
4.94218
-5.58098
0.086457
-5.58098
5.47942
0.0151067
5.47942
-5.36938
5.36938
-5.47544
0.0114206
-5.47544
5.45092
0.013096
5.45092
3.19123
-3.19123
-3.03525
0.0394598
-3.03525
2.95473
0.0410623
2.95473
0.354422
5.27201
-5.98085
8.79295
-5.27201
0.0270972
5.20858
0.036331
5.20858
-5.10387
0.0370625
-5.10387
5.02026
0.0465443
5.02026
4.81286
-0.0507161
4.81286
-4.87885
0.116707
-4.87885
-3.28746
-3.29209
-5.28377
0.0760258
-5.28377
-2.14442
-0.00911063
-2.14442
2.12541
0.0281226
2.12541
-3.87931
3.87931
-6.30021
0.202103
-6.30021
3.08197
0.083812
3.08197
1.86541
1.88554
5.61636
-5.61636
2.45058
-5.46955
-0.0253868
-5.46955
-5.51056
-4.22405
5.51056
-0.0156299
-1.05532
0.484746
-1.05532
3.12895
0.0671628
3.12895
2.93833
0.0163952
-2.93833
0.127367
3.60375
-3.60375
2.11103
0.699936
2.11103
-5.58649
5.58649
4.95639
0.0638746
-4.95639
0.100697
6.16049
0.0584829
6.16049
-6.19961
-0.0193644
-6.19961
3.32188
-6.64415
-3.30442
5.09487
0.112874
-5.09487
0.132153
3.15957
-0.0217431
3.15957
-3.09532
3.09532
-3.12749
-0.0103322
-3.12749
-1.38839
0.310446
-1.38839
1.07974
-0.00179979
1.07974
-4.7773
-0.342088
-4.7773
-6.19247
-0.107736
6.19247
-0.305463
2.64199
-2.64199
-1.94862
0.140004
-1.94862
-4.44476
-0.332544
4.44476
-0.199099
-4.11537
-0.130289
-4.11537
-3.11253
-0.01496
3.11253
-0.00944703
3.09847
0.0304749
-3.09847
-0.00461636
-1.87336
3.7589
-1.8776
3.74829
-4.65876
-0.283419
-4.65876
5.10022
-0.158036
5.10022
5.83117
0.266929
-5.83117
0.250189
5.44885
0.0305657
5.44886
-5.34737
-0.0220062
-5.34737
5.39864
-0.0292676
5.39864
5.44573
0.00312969
-5.44573
-0.0297132
5.46055
-0.00962553
5.46055
3.23453
-0.0433029
3.23453
-3.17176
-0.0194646
-3.17176
3.08311
-3.08311
3.07983
0.00327562
-3.07983
0.0445873
-11.1307
11.1113
-0.0331693
-11.0975
5.17541
5.17541
3.95137
0.861493
3.95137
-5.05101
0.172156
-5.05101
3.28115
-6.58558
3.2979
-6.58536
3.29966
-11.3911
3.31769
-6.60978
5.40612
-5.40612
5.35629
0.0498258
-5.35629
0.0725178
-2.15675
0.0123269
-2.15675
-3.69206
-0.187245
-3.69206
4.08791
-0.208599
4.08791
-3.08245
3.08245
-3.07425
-0.0082006
3.07425
0.00772073
5.46919
-0.00864473
-5.46919
-0.000355142
1.33242
0.189092
-1.33242
0.277107
3.77298
-0.169227
3.77298
-3.42376
-0.179993
-3.42376
-2.1226
-0.0341455
2.1226
-0.0115748
-5.82591
0.239411
-5.82591
-11.1898
0.0923068
-11.1535
-6.1073
-6.1073
2.33346
11.1264
-3.16435
-0.00741089
3.16435
-0.00478237
3.10682
-0.0243655
-3.10682
0.0114966
-3.08691
0.00379791
3.08691
0.00841158
-1.88653
0.498144
-1.88653
-1.83436
1.83436
-1.38078
-0.453578
1.38078
-0.30104
2.95846
-0.316465
2.95846
2.05003
0.0753766
-2.05003
0.101417
-3.99046
-0.124908
-3.99046
5.15539
-0.0551726
5.15539
-3.31937
-0.104391
3.31937
-0.0848402
-0.0345662
11.1459
-5.14084
0.0369752
5.14084
-11.2044
11.2414
-2.77589
0.889362
2.77589
1.17548
5.31588
0.270619
-5.31588
0.264865
5.39334
0.00529863
-5.39334
-0.0127729
-3.47366
-0.218399
-3.47366
-4.31451
-0.344252
4.31451
-0.226607
-11.4588
-0.20075
11.6596
-11.4123
6.02666
0.133838
-6.02666
11.3752
-2.27955
-0.362441
2.27955
-0.445192
3.15659
-0.198131
3.15659
3.90445
-0.131471
-3.90445
-0.0860096
-5.2613
-0.0860662
5.2613
-0.105912
-3.28747
-0.186193
3.28747
-0.130883
-4.19856
4.26573
1.96959
-3.34157
-3.30258
-7.56562
1.81334
1.94556
4.26392
-7.03267
-4.35848
-6.90052
7.29864
-7.03378
-9.61626
9.56555
7.22091
-7.3512
-5.78913
5.79685
6.39242
-6.40186
1.85811
1.90332
10.6039
-10.5174
-10.2734
9.98997
10.2171
-10.2057
10.5939
-10.6159
-12.1805
12.1858
-5.68735
5.72681
-6.61297
6.5935
-6.70484
6.62
-3.22925
-3.35611
9.03461
-8.95859
11.6689
-11.6943
-11.2099
11.412
3.30233
0.963395
3.33281
-1.90815
3.76625
-1.85024
3.81984
3.28127
-6.51052
3.3043
-6.60688
6.01106
5.65784
-5.99543
-1.57019
-5.86204
5.8403
-5.79144
5.79985
9.40337
-9.77147
-1.87842
3.78174
-1.86986
3.81542
-3.40221
-2.38691
3.3184
0.945518
5.55187
3.48274
-5.66475
-1.23577
-7.51862
7.38715
-7.81879
7.6388
-0.481355
5.78173
-5.30038
4.37434
-1.45521
7.23694
5.84343
6.01559
5.86283
-5.59222
1.17094
-6.47132
-6.37062
-2.66148
2.80148
2.69202
-2.55221
5.71827
1.50264
5.51917
-5.421
-1.9302
-5.54591
3.85436
1.94249
3.84616
4.06974
2.32267
4.05478
3.0562
-3.05356
-0.00264316
-3.10221
6.15841
0.728186
-5.48913
-4.54361
6.97025
3.63365
6.98536
-7.24725
-3.27019
-6.99706
-6.04256
-4.23083
-6.38681
6.53678
3.45319
6.37875
-7.84845
7.74254
6.74231
3.47479
6.7554
-6.81583
-3.38985
-6.84555
10.277
-2.65904
-7.61792
-6.8174
-5.36313
6.84667
3.74723
7.45106
4.73477
7.43829
3.50539
6.77157
-7.25263
1.8895
-3.82602
-1.86133
-3.78144
3.67311
2.0537
3.71417
-4.16648
-2.44649
-4.17389
-4.20037
-2.50447
4.24367
2.34983
-4.25511
-3.56369
4.3595
2.2605
3.05352
-7.412
3.55625
-6.91236
-6.27221
-2.68638
-6.19969
3.93716
2.65001
-6.58717
-2.57336
10.7504
-5.0926
9.18024
-7.2682
-4.42609
-7.26855
-8.50807
-2.70183
-8.6158
-5.59551
5.37711
-5.61077
5.40217
10.359
-5.56631
-4.79268
-3.84307
-2.55879
3.84769
-0.514884
-3.82617
3.82352
-0.0599143
3.75992
4.72332
4.20843
-3.85485
-1.93659
-3.84335
3.83841
1.96144
3.84221
8.0588
1.34458
7.65927
-6.39013
-3.38133
-6.73222
7.33186
-7.02141
2.9693
-3.00345
5.03843
2.60037
-4.8692
-2.64941
5.90938
-2.84731
-3.06206
-12.0633
11.0392
1.02409
-4.82633
-0.451999
0.118572
-5.67218
-3.94408
5.55547
0.460114
11.4993
7.55522
-5.50674
5.74615
6.15281
6.21669
-0.153937
5.39594
-4.50657
3.87129
-2.14349
-1.7278
5.10044
-5.43298
-1.63178
-4.98167
3.34989
0.0861849
2.21432
-1.72958
-2.14921
-0.512268
-2.04779
1.65689
1.03513
1.84598
0.98153
1.81995
-2.87782
0.584971
2.29285
-1.89629
-1.96724
-3.34417
-1.18185
4.52602
5.39398
1.99316
-5.30797
-0.237935
2.81742
-2.7893
-0.569855
-2.77431
2.1165
-2.68636
-3.32181
-1.84896
5.17077
-3.34021
-0.503139
3.36458
0.481577
-3.76692
-2.09512
3.77725
0.277533
-3.03174
6.09855
-3.06681
-4.96833
2.59947
3.55894
4.54196
-4.78457
2.42682
2.35774
-1.22563
6.0146
0.970761
6.04516
-9.16861
5.89842
7.68803
3.72398
-7.95496
0.957894
-8.21072
9.5509
-8.3823
-1.1686
4.94571
4.60518
5.08519
5.27379
-3.81765
8.90284
-1.19336
-7.18894
9.40407
-5.6801
5.65643
-11.3365
-10.9302
3.74128
-6.79847
8.47296
-1.67449
-2.41844
-5.43001
9.21691
-0.893565
-8.32335
5.48518
-5.27938
-5.31261
10.592
-7.93842
8.70246
-2.55956
-6.1429
-6.62134
-3.99457
6.7074
1.03514
-9.79689
11.6864
-3.02532
5.86305
0.89235
5.85343
3.82136
-5.92575
2.10439
4.11706
-6.67662
2.51791
-8.44366
-4.72328
9.42739
-4.70411
-7.40966
-6.56298
-0.84668
2.04571
9.64067
-6.78048
5.27456
1.50593
3.33215
0.51006
-3.33543
-0.446011
0.33107
4.36482
-4.69589
4.04524
4.06164
3.31642
1.0484
3.82941
2.01089
-3.82463
-0.349259
-3.94677
1.4423
-1.59694
-3.39277
4.83507
-3.7975
0.404737
-2.62656
-3.47929
6.10586
-4.48789
3.05354
3.04501
5.01498
-4.73675
1.25745
-2.35241
-2.38434
2.54005
-4.13699
1.87317
2.9619
4.13367
0.569982
4.72972
4.69767
-7.37973
0.467365
8.18041
-6.94464
1.61145
5.82683
-6.88601
0.323031
-5.87666
1.15319
-6.24579
-5.43398
6.03834
-8.74017
-5.29819
7.77589
-0.116615
-7.47043
-1.14538
-3.87769
-1.71782
-4.06388
-1.65742
-3.95335
-5.47508
-1.23652
-4.23856
4.14059
-4.22018
-2.16663
4.44679
0.955386
-4.92746
4.56502
-4.79004
4.59191
0.148912
3.67461
4.35735
1.79856
-2.44898
4.24754
-6.60562
7.95019
-8.5491
1.94348
2.70262
-6.08395
-5.84648
3.94178
3.39007
3.93998
6.77796
-9.67896
2.90099
-7.31734
7.96468
-0.647341
-11.2061
3.88877
-4.42814
2.75266
0.216647
2.76498
0.715705
2.34302
-3.05873
-2.28774
-2.29932
-2.19755
-3.1742
5.37176
1.04286
-3.19941
2.15655
-3.21857
4.26143
-0.153246
-3.04616
5.17206
-2.82903
5.3887
-3.37181
2.01689
3.08034
5.24372
-2.16338
4.16557
-1.5652
1.65805
-3.82142
-1.51616
-2.93731
4.99101
-3.16855
3.57328
-0.295119
3.8684
-3.89588
1.04857
-0.579464
3.48217
3.60954
4.09057
-3.04217
2.79291
-4.35811
-1.02851
-3.78813
-0.826232
-4.34968
-3.40962
7.75929
4.50669
-8.85637
-5.71925
8.39762
-2.67837
6.84658
-5.76808
-1.0785
-3.62924
-3.39217
3.1311
2.26484
9.11142
-0.323084
-5.44499
-4.82966
-3.65418
1.9166
1.9547
-2.70412
3.72821
2.58555
-0.371226
0.578562
1.26742
1.96324
-1.38468
0.185049
1.77819
-1.54453
2.07749
0.739929
-2.15287
0.105078
-1.23788
3.35439
1.05497
-2.0901
0.705418
0.860879
-3.00437
4.30823
-1.9993
-2.30893
5.16911
1.24779
-3.24709
3.73388
-3.6477
1.96578
-3.14764
-1.28131
-4.929
-3.42636
-2.34483
4.50138
-3.02693
5.02009
1.17957
-4.78216
5.96172
-3.34887
1.49992
-2.89602
3.63595
-0.912556
-1.98346
2.59867
2.5721
-2.74469
-0.029624
-0.146021
2.14705
-2.29307
-0.539308
-2.4356
-4.49853
4.77606
-2.07168
4.49851
2.17586
-1.90982
6.40832
1.79833
-3.70814
-3.17
-3.67314
-1.3504
3.19156
-0.917674
-5.92787
-7.06057
5.92474
0.12042
-8.97719
10.1281
-1.15091
-5.34355
-0.554875
5.50059
-7.3825
0.705872
-4.86459
5.26352
6.23428
6.3547
-8.26353
-0.0598151
-4.81035
1.2231
-6.03345
5.82829
-2.80497
6.54626
-7.05325
4.88662
-6.09787
5.37766
-0.65579
5.49362
-3.38923
2.1243
-6.11887
-5.08374
6.98618
-3.51139
7.87853
-4.05528
11.9338
-7.0806
6.91408
5.01973
-1.36051
-5.90805
-6.85082
5.49032
0.0632629
5.91669
4.8016
-2.79071
4.45234
2.13114
-4.48354
-2.00585
-6.27675
1.79321
-3.23174
-1.85297
3.64617
3.16201
3.67207
1.26183
-3.22606
6.48623
-7.33291
-1.78212
-3.65185
6.74215
-1.25184
3.92972
-7.58158
-2.31607
5.41243
-0.960043
-4.45239
0.153877
-5.45207
2.73901
-8.19108
6.00116
-7.14654
1.7051
-6.13324
-3.22236
-3.66755
-1.48615
-3.30389
-4.83343
3.34728
-0.944663
3.62035
-5.7511
4.79106
-2.21357
5.56085
-3.52888
-0.535007
3.65976
0.932149
6.493
-2.1283
-3.71818
-0.633469
3.50355
-2.87008
1.28313
-5.53792
-2.03437
2.36394
2.80517
-5.71383
-0.370117
-4.08829
-2.55086
5.94094
5.84675
10.3534
0.674483
6.66802
-0.727082
7.3425
3.2129
2.91186
-3.16571
6.06671
4.59358
6.53706
-0.834956
2.85185
1.93003
1.92092
0.868385
2.22777
1.38178
3.27633
0.217608
-2.08171
5.11609
-8.77027
-0.328903
-7.90878
1.65677
6.46154
-4.80477
2.99182
-1.03712
0.12174
-1.03353
-1.91817
2.9517
-2.76133
-2.2894
-0.511203
-1.59305
2.29847
1.76134
-1.78727
-0.974062
0.382311
-3.80867
2.76533
-2.79495
-0.222854
5.73887
-2.54357
0.250495
-1.04365
-2.18511
-2.69738
2.5923
6.12045
0.287869
3.05364
5.06393
2.9688
0.178096
4.36893
-6.04342
-4.07473
-6.10323
-0.274948
5.22564
1.98305
7.65763
7.00278
5.75094
-1.83064
-9.16355
7.28516
-1.21846
6.63782
-2.18544
-6.00564
6.41422
1.53597
-6.2976
-0.848933
-6.85458
-8.07303
-0.485646
5.27671
-6.00735
5.47235
3.75453
0.48403
-2.74147
-0.92608
3.19505
-0.283186
7.05932
-1.81941
-8.39323
10.2126
-4.64214
4.31323
0.00259367
3.72561
2.95429
1.91717
-6.47606
-11.2808
-1.77496
-1.22941
-4.08389
0.44213
-2.20347
6.27532
-1.96209
5.19682
8.25055
8.37229
-3.92738
-4.92898
6.60575
-1.40893
6.96335
)
;

boundaryField
{
    wall-4
    {
        type            calculated;
        value           uniform 0;
    }
    velocity-inlet-5
    {
        type            calculated;
        value           uniform -3.75095;
    }
    velocity-inlet-6
    {
        type            calculated;
        value           uniform -5.62643;
    }
    pressure-outlet-7
    {
        type            calculated;
        value           nonuniform List<scalar> 8(6.44986 6.33034 6.60702 6.72387 6.57954 6.6263 6.57906 6.61735);
    }
    wall-8
    {
        type            calculated;
        value           uniform 0;
    }
    frontAndBackPlanes
    {
        type            empty;
    }
}


// ************************************************************************* //
