/*--------------------------------*- C++ -*----------------------------------*\
| =========                 |                                                 |
| \\      /  F ield         | OpenFOAM: The Open Source CFD Toolbox           |
|  \\    /   O peration     | Version:  2412                                  |
|   \\  /    A nd           | Website:  www.openfoam.com                      |
|    \\/     M anipulation  |                                                 |
\*---------------------------------------------------------------------------*/
FoamFile
{
    version     2.0;
    format      ascii;
    arch        "LSB;label=32;scalar=64";
    class       volVectorField;
    location    "5";
    object      U;
}
// * * * * * * * * * * * * * * * * * * * * * * * * * * * * * * * * * * * * * //

dimensions      [0 1 -1 0 0 0 0];

internalField   nonuniform List<vector> 
918
(
(0.987417 -0.00715862 0)
(0.00482485 2.9664 0)
(-0.0104642 1.71347 0)
(0.96762 0.0138307 0)
(-0.00943249 1.68819 -2.1029e-21)
(-0.00694969 2.94866 -2.16327e-18)
(1.04043 1.42169 6.07581e-19)
(0.558434 0.295245 -8.39605e-21)
(0.999421 -0.00180098 0)
(0.014361 1.64321 0)
(0.0120961 1.65314 0)
(0.906704 0.015828 0)
(0.0117688 2.92917 0)
(-0.00511245 2.79599 0)
(-0.0353201 3.23286 1.16982e-18)
(0.0109027 1.65126 -2.35675e-20)
(0.69417 0.135434 5.38559e-19)
(0.253649 1.92846 5.85659e-19)
(0.966718 0.0256879 0)
(0.00125606 1.66676 0)
(0.174811 0.285703 -6.07938e-19)
(0.991917 -0.00468671 0)
(0.993327 -0.00997684 0)
(0.967934 -0.00692294 0)
(0.846373 0.00389159 0)
(0.0148781 2.63897 0)
(-0.014093 2.91131 7.75546e-19)
(-0.00748983 1.72444 0)
(-0.00157594 1.76245 0)
(-0.000371434 1.73231 0)
(0.00851256 1.78911 0)
(-0.00250802 1.70094 1.6672e-21)
(-0.00387843 1.63654 0)
(-0.0208565 2.9876 -7.68336e-23)
(-0.0167831 3.00544 1.6836e-18)
(0.00219985 3.0004 0)
(0.949982 0.00708586 0)
(0.223983 0.378629 -2.34874e-19)
(0.962718 1.47773 -6.42381e-19)
(1.09633 1.19619 7.43603e-19)
(0.838885 1.687 -1.38201e-19)
(0.920905 1.66085 8.51108e-19)
(0.599229 0.34351 8.19222e-21)
(0.581951 0.280904 0)
(1.22605 0.601225 0)
(0.582941 0.350176 3.94186e-20)
(0.530874 0.307952 -4.09024e-20)
(0.941974 0.00228336 0)
(0.999934 -7.43179e-05 0)
(1.00023 0.000994238 0)
(0.986182 -0.0156152 0)
(0.999803 -0.0032162 0)
(1.0023 0.000131234 0)
(0.0304166 1.60877 -5.07181e-19)
(0.0177514 1.74013 0)
(0.0798203 1.683 0)
(-0.00281006 1.72837 0)
(-0.00315859 1.64242 0)
(0.000223066 1.64524 0)
(0.0022468 1.71299 0)
(-0.00230903 1.65482 0)
(0.00561502 1.71386 0)
(0.0125635 1.64467 0)
(0.962631 -0.00136052 0)
(0.944646 0.0106199 0)
(0.911802 0.0125747 0)
(0.929993 0.0182618 0)
(0.894473 0.00419196 0)
(0.0149853 3.00019 7.97692e-19)
(0.0120734 3.00736 0)
(0.0064863 3.00342 0)
(0.0136628 2.99695 9.021e-24)
(0.00844805 2.95802 -1.18558e-18)
(0.014036 2.98104 0)
(0.0105285 2.90426 0)
(0.022825 2.92755 1.73786e-24)
(0.00505218 2.82402 0)
(0.0243587 2.91236 0)
(-0.0260643 2.75359 0)
(0.277588 3.59095 0)
(-0.126092 3.68585 0)
(0.132514 3.31602 1.08672e-18)
(-0.00990672 3.03321 0)
(0.00240815 1.75412 0)
(0.00572599 1.7104 2.3253e-20)
(0.0151687 1.65352 -3.18439e-20)
(0.724407 0.168948 -1.86029e-19)
(0.696947 0.102904 -1.86296e-19)
(0.725394 0.206474 -5.60367e-19)
(0.669313 0.182325 -3.74542e-19)
(0.202691 1.3465 0)
(0.344409 2.00457 -6.44196e-19)
(0.497532 1.96774 1.0832e-18)
(0.979349 0.0194752 0)
(0.93377 0.02276 0)
(1.00178 0.000136891 0)
(0.994165 0.0135665 0)
(0.998237 0.0224019 -1.11648e-18)
(0.985346 0.0348739 8.62394e-19)
(-0.00233933 1.71086 0)
(-0.00418581 1.65771 0)
(0.00343156 1.74188 0)
(0.000182738 1.72304 0)
(0.00934258 1.66832 0)
(0.284122 0.395381 1.79943e-19)
(0.39319 0.328136 0)
(0.989754 -0.00141194 0)
(0.954042 0.00822807 0)
(0.915223 -0.00507473 0)
(0.905095 0.0107786 0)
(0.893137 -0.0118754 0)
(1.08232 -0.00170397 0)
(0.850912 0.0615687 0)
(0.763807 0.0336561 7.33604e-19)
(-0.0417895 2.87712 4.60818e-19)
(0.0356401 2.90939 0)
(0.0543431 2.88538 0)
(-0.0229457 2.70929 0)
(-0.0119369 2.98529 7.28391e-19)
(-0.0159074 2.89746 0)
(-0.0149657 2.98811 -2.27197e-18)
(-0.0126255 2.92539 7.81563e-19)
(0.000300526 1.77327 0)
(0.000397695 1.76626 0)
(0.00187695 1.71528 -3.06369e-22)
(-0.00749495 1.70173 0)
(-0.00866548 1.64249 0)
(0.983929 0.00711627 0)
(0.952737 0.00643699 0)
(0.934336 -0.00554069 0)
(0.979681 0.0134331 0)
(0.948903 0.00260581 0)
(0.412674 0.750722 2.80464e-19)
(0.254422 0.728797 0)
(0.498338 0.655337 -2.48434e-20)
(0.247421 0.257481 0)
(1.04677 1.25028 -2.06228e-19)
(1.15593 0.965542 4.50216e-19)
(0.532625 1.9792 0)
(0.690235 1.87152 0)
(0.743564 1.86462 0)
(0.54539 0.987701 -3.54219e-19)
(0.649914 0.311495 0)
(0.627387 0.231417 1.05686e-19)
(1.11227 1.03761 0)
(1.16376 0.845639 0)
(1.18195 0.773121 -3.97395e-19)
(1.20919 0.663009 0)
(1.26536 0.424348 6.46751e-20)
(0.976961 -0.00411323 0)
(0.973254 -0.000171489 0)
(0.940533 -0.00992163 0)
(0.971007 0.0101606 0)
(0.967291 0.00692098 0)
(0.937341 0.0114732 0)
(0.999878 0.00119174 0)
(0.999128 0.00182656 0)
(0.999744 0.00110015 0)
(0.0262454 1.62656 2.72721e-19)
(0.0561992 1.54148 0)
(0.0015361 1.66971 2.17583e-19)
(-0.00551208 1.62591 -3.9058e-19)
(0.186356 1.90871 -4.8738e-19)
(0.0638164 1.77399 0)
(0.123741 1.77814 0)
(0.00315492 1.73021 0)
(0.00717092 1.63889 0)
(-0.00460409 1.69592 -1.29667e-21)
(-0.00253437 1.64796 0)
(0.00119268 1.70241 -6.04371e-20)
(-0.00708946 1.65504 -2.91194e-21)
(-0.0107114 1.71671 0)
(-0.0180058 1.71171 0)
(-0.015801 1.63814 0)
(0.00546353 1.70781 0)
(-0.000841371 1.65191 0)
(1.00896 0.0045093 0)
(0.973792 0.00817969 0)
(0.997798 0.00927431 0)
(0.956591 0.0116965 0)
(0.927991 -0.00195296 0)
(0.96754 0.000900438 0)
(0.96704 0.00713547 0)
(0.930312 -0.0112622 0)
(0.0059699 3.06502 -7.26594e-21)
(0.0152901 3.05757 0)
(0.0139157 2.96957 0)
(0.00884215 2.87754 0)
(0.819173 3.95141 0)
(1.09584 3.19997 9.71381e-19)
(0.0807179 3.13408 0)
(-0.0238613 2.92883 0)
(-0.00351444 1.75513 0)
(-0.00387546 1.75456 0)
(-0.00116607 1.75388 0)
(0.00621939 1.78305 2.93773e-21)
(-0.000392718 1.75785 0)
(0.00731905 1.7648 0)
(0.00268241 1.66442 1.85395e-21)
(-0.00852555 1.71501 4.07187e-20)
(-0.000901176 1.71778 3.24698e-20)
(-0.00343484 1.65874 0)
(0.756534 0.129385 2.80383e-19)
(0.717516 0.0624354 -2.69889e-19)
(0.188746 1.4239 0)
(0.291318 1.30384 -2.21362e-19)
(0.124301 1.43681 -6.53269e-19)
(0.148638 1.38251 6.52588e-19)
(0.92777 -0.00457843 0)
(0.968721 0.000629238 0)
(0.962977 0.00372866 0)
(0.921629 0.00298787 0)
(-0.00259278 1.71295 0)
(-0.000937224 1.70959 0)
(0.00184147 1.65626 0)
(0.531487 0.381737 3.63648e-19)
(0.460303 0.391555 -4.83201e-19)
(0.490731 0.310508 0)
(1.18983 0.0815133 -1.8983e-21)
(1.18031 0.0379978 0)
(1.10879 0.038859 0)
(1.02964 0.00987464 0)
(0.773963 0.0864563 0)
(0.787671 0.0713089 -1.18432e-18)
(0.735946 0.0222421 4.54068e-19)
(0.00293202 2.98485 5.60111e-19)
(-0.0396914 2.87285 5.18884e-20)
(0.00200929 3.05011 -1.55527e-20)
(0.019185 3.04252 5.44702e-19)
(-0.0146242 2.99636 2.58404e-20)
(-0.0126516 2.94975 -1.03634e-22)
(-0.0174793 3.01215 -4.80083e-19)
(0.0150096 3.02356 3.53812e-19)
(0.00765699 3.03792 -5.54741e-19)
(0.994537 0.0153914 0)
(0.995455 0.00240206 0)
(0.9569 0.00819586 0)
(0.972159 -0.011016 0)
(0.977449 -0.00521065 0)
(0.935737 -0.0202759 0)
(0.969239 0.00910713 0)
(0.967363 -0.000641876 0)
(0.931617 0.00234423 0)
(0.453463 1.02891 4.69857e-19)
(0.497586 1.16967 0)
(0.471714 0.621146 7.87589e-20)
(0.579076 0.82966 4.67002e-19)
(0.561867 0.7162 -1.46019e-19)
(0.340025 0.390662 2.22578e-19)
(0.498778 1.22333 1.72281e-18)
(0.507473 1.12313 3.57491e-19)
(0.691848 0.250132 -3.84994e-19)
(0.674417 0.271509 9.57593e-20)
(0.653521 0.211139 1.99262e-19)
(1.25075 0.484592 2.62846e-19)
(1.26409 0.265186 2.90291e-19)
(-0.0162196 1.67588 1.82842e-19)
(-0.00384927 1.61911 0)
(1.0565 0.0228771 0)
(1.02675 0.0173305 0)
(1.00604 0.00343718 0)
(0.0124346 3.07448 0)
(0.0202801 2.94312 9.89679e-19)
(0.0168484 2.95761 0)
(0.00854232 2.85146 -9.80532e-19)
(0.00919213 3.08724 2.39001e-19)
(0.00784877 3.08216 0)
(0.502504 1.53281 -2.11208e-19)
(1.06341 2.34503 4.95934e-19)
(0.507915 1.73074 -1.3268e-18)
(0.0166901 2.99451 -4.21704e-19)
(0.0434352 3.03235 0)
(-0.0343524 2.89586 0)
(-0.0048219 1.69491 -6.20677e-21)
(0.00661504 1.70947 -1.89093e-21)
(0.00590349 1.65598 -6.71943e-21)
(0.258008 1.36491 7.03397e-19)
(0.347732 1.26364 -4.95809e-19)
(0.0434685 1.5583 4.35369e-19)
(0.0757509 1.49536 -5.3762e-19)
(0.0776078 1.43771 5.65609e-20)
(0.0101738 3.1124 -1.31106e-18)
(0.0147103 3.11394 1.42193e-18)
(-0.00744972 2.9829 6.52191e-19)
(-0.00737891 2.98033 -5.97338e-19)
(-0.0237267 2.88728 -6.64206e-19)
(0.00891609 3.09915 -1.76879e-18)
(0.00579881 3.10209 1.76269e-18)
(0.531833 1.1057 0)
(0.568598 0.976564 -1.42849e-18)
(0.53442 0.847812 6.45751e-19)
(0.424464 1.27891 9.58794e-19)
(0.454112 1.17889 -1.49786e-18)
(1.26433 0.16786 -4.78181e-20)
(1.26215 0.313036 0)
(1.2528 0.120799 1.14846e-19)
(0.00555062 1.69814 -1.5788e-21)
(0.000757858 1.67764 0)
(0.0143153 1.63132 0)
(0.31397 1.32705 -2.55095e-19)
(0.36484 1.32205 -6.15062e-19)
(0.403926 1.20848 1.12002e-18)
(0.999898 -0.0380862 0)
(1.00458 -0.0354384 2.07261e-19)
(0.00226124 1.77232 0)
(-0.00386723 1.7798 0)
(1.00544 0.00843585 5.67454e-21)
(0.994885 0.0113597 4.20135e-19)
(-0.00561557 1.78142 -3.78591e-21)
(-0.00745907 1.78159 0)
(0.062439 3.20843 2.14168e-19)
(0.409933 3.62008 0)
(1.09236 0.62933 3.44354e-20)
(1.00978 -0.00172519 -1.45677e-21)
(1.00763 0.00847633 0)
(1.00573 -0.00379545 -1.57486e-21)
(0.0322919 1.8388 0)
(0.0962655 1.69562 0)
(0.00642924 1.79031 0)
(0.00484426 1.76551 8.72429e-20)
(0.0125936 1.75926 4.44571e-20)
(0.994416 0.0112699 1.80995e-21)
(1.04102 -0.00465225 0)
(1.05851 0.0298306 0)
(-0.0105675 1.75301 0)
(-0.00601425 1.78451 0)
(-0.0142253 1.78269 0)
(0.22142 1.94684 -2.54141e-19)
(0.991941 -0.0323301 0)
(0.986043 -0.0250279 0)
(1.01596 -0.00646964 2.63979e-19)
(1.00921 -0.0164941 -3.02342e-19)
(1.00755 -0.00457187 0)
(-0.00345845 1.73894 0)
(0.00710586 1.7609 0)
(-0.000363697 1.75458 0)
(-0.00883346 1.78621 0)
(-0.00261975 1.77884 0)
(-0.00762712 1.78391 0)
(1.01862 0.00204322 0)
(1.01344 0.00667275 -1.56081e-21)
(0.700769 1.4463 3.30104e-19)
(1.00684 -0.00258019 -2.56955e-19)
(1.01549 0.0123044 3.17862e-19)
(0.998992 0.00161645 0)
(1.015 0.00916555 2.48597e-19)
(0.997093 0.0105384 -3.16886e-19)
(0.988176 0.0223207 0)
(-0.00871831 1.78798 0)
(-0.012623 1.78445 1.2128e-20)
(-0.0113467 1.78657 -8.38617e-21)
(1.16273 0.248856 -1.57462e-20)
(1.0996 0.071318 0)
(0.0702236 3.05028 -7.35062e-19)
(0.0806306 2.84979 -5.7216e-20)
(0.21318 3.17873 1.27276e-18)
(0.166944 3.22474 -3.54057e-20)
(0.188243 3.31933 0)
(0.0274498 3.1329 1.63744e-19)
(0.111866 3.15359 7.10798e-19)
(0.0960235 3.19549 -3.30904e-19)
(0.0300676 3.11872 0)
(0.70451 0.355204 0)
(0.645045 0.400452 0)
(1.00132 0.659126 -1.41307e-19)
(1.06966 0.820229 -5.81943e-20)
(1.12445 0.525244 0)
(1.16336 0.528595 0)
(1.01638 -0.00555096 -4.82918e-19)
(1.01966 -0.00514138 -2.7975e-21)
(1.01542 0.00871478 0)
(1.01586 0.0136469 0)
(1.01044 0.00699737 0)
(1.02083 0.00320859 0)
(1.01253 -0.00364828 0)
(1.02704 0.00466096 0)
(1.02155 0.0181969 0)
(1.02501 0.0107156 0)
(0.0197585 1.83375 0)
(0.0105462 1.84076 0)
(0.0651405 1.86726 0)
(0.0583349 1.87539 0)
(0.103038 1.69098 0)
(0.101752 1.66665 -2.95296e-19)
(0.0754845 1.72634 0)
(0.0370451 1.71496 1.57647e-19)
(0.0334925 1.75806 -1.61966e-19)
(0.00867631 1.79056 0)
(0.00158159 1.7886 0)
(0.00665391 1.7933 0)
(0.00462079 1.81137 0)
(-0.00187624 1.758 -5.07672e-20)
(0.00690953 1.76488 6.42274e-20)
(0.00187737 1.77067 7.83074e-20)
(0.00800724 1.76911 0)
(0.013285 1.77069 -9.29265e-20)
(0.0141521 1.76936 -6.25364e-20)
(-0.00173378 1.75605 3.94548e-20)
(0.000765957 1.75722 -8.45338e-20)
(-0.00120059 1.76391 -9.64181e-20)
(1.00241 0.0226518 4.51547e-19)
(1.00327 0.0174276 2.54534e-21)
(0.998619 0.00602362 -4.82287e-19)
(0.970355 0.00390791 6.06825e-19)
(1.03908 0.0046564 0)
(1.04742 -0.0134849 0)
(1.05357 0.0304824 0)
(1.04805 0.0038208 0)
(1.06388 0.02173 0)
(1.07656 0.0749317 0)
(1.06426 0.0321476 0)
(1.08762 0.0340953 0)
(-0.00684618 1.78171 -1.74713e-21)
(-0.0156868 1.75821 0)
(-0.0114257 1.76574 0)
(0.00346373 1.78464 1.35599e-20)
(-0.00338406 1.78568 -8.30443e-22)
(0.00708455 1.72262 2.00987e-20)
(0.00115905 1.73276 -1.98476e-20)
(-0.00105387 1.76767 0)
(0.00304803 1.76258 0)
(0.00274504 1.76147 0)
(-0.00498849 1.78389 0)
(0.000962656 1.77969 0)
(0.368567 1.91889 3.96541e-19)
(0.364848 1.93446 1.87385e-19)
(0.304355 1.55283 -1.75808e-19)
(0.125082 1.57757 4.54178e-19)
(0.266219 1.64732 1.13941e-19)
(1.00083 0.0161413 0)
(0.987229 -0.0127261 0)
(0.988646 -0.00623634 0)
(1.03464 -0.00991239 0)
(1.0178 -0.0225359 0)
(1.01469 -0.0235299 0)
(0.993183 -0.00121317 0)
(1.01463 0.0229489 0)
(1.01131 0.00911501 4.33314e-19)
(1.01649 0.0138103 -5.65692e-19)
(1.01301 -0.00262007 -4.39729e-19)
(1.01496 -0.00810114 5.59797e-19)
(0.695576 1.55805 0)
(0.616418 1.67141 2.96753e-19)
(0.799054 1.32636 1.61054e-19)
(0.851726 1.25179 -2.13107e-19)
(0.786195 2.17529 -8.52083e-19)
(0.842473 0.111221 2.79068e-19)
(1.10478 0.0818562 0)
(1.12595 0.164642 1.28527e-20)
(1.13227 0.138043 1.39802e-21)
(0.967696 0.106823 0)
(0.235613 2.93117 6.80239e-20)
(0.179131 2.84451 -1.03132e-18)
(0.0352914 2.33157 7.17584e-19)
(0.101101 0.214759 -2.86683e-19)
(0.33812 3.5278 -5.53874e-19)
(0.230921 3.38156 0)
(0.262942 3.4893 7.21253e-19)
(0.339339 3.11487 -7.4783e-19)
(0.473903 3.32974 0)
(0.0151474 3.11321 3.59825e-20)
(0.0249101 3.12557 -4.36029e-19)
(0.0246266 3.12214 6.41791e-19)
(0.0473972 3.13509 0)
(0.0455359 3.14878 0)
(0.826104 2.42077 0)
(0.462881 0.609771 5.90401e-21)
(0.967451 1.04447 -1.05521e-19)
(0.91023 1.07061 0)
(0.685022 0.998963 1.25843e-20)
(0.95957 0.837643 1.29443e-20)
(0.442759 0.600115 -5.92693e-19)
(0.715378 0.342032 -2.39644e-20)
(0.71909 0.313335 2.00307e-19)
(0.624279 0.43922 1.68487e-20)
(0.591541 0.428188 -7.12508e-19)
(0.703741 0.365294 0)
(0.703356 0.418584 3.15753e-19)
(0.703778 0.402176 0)
(0.664711 0.389319 0)
(0.673941 0.367172 0)
(0.746646 0.574042 9.4738e-20)
(1.17009 0.264212 -4.74496e-20)
(1.14947 0.408323 0)
(1.17467 0.367631 0)
(0.79376 0.227368 3.17307e-19)
(0.793561 0.475387 -1.60023e-19)
(0.720343 0.450847 -2.51749e-19)
(0.86716 0.410691 -2.63226e-19)
(1.01623 0.00764706 3.0879e-19)
(1.01956 -0.00838433 -3.09719e-19)
(1.01906 -0.00260187 0)
(1.01755 0.00138465 0)
(1.02091 0.00586364 -2.94021e-19)
(1.02118 -0.00905231 2.8661e-19)
(1.01014 -0.000583736 0)
(1.00406 0.00111278 0)
(1.02524 -0.00408767 0)
(1.02008 -0.00927423 0)
(1.01275 0.00324016 0)
(1.01659 0.00581242 0)
(0.00948604 1.83887 0)
(0.0122068 1.83395 0)
(0.140237 1.84537 -1.56772e-20)
(0.216606 1.91879 1.25973e-19)
(0.119773 1.92166 2.68115e-19)
(0.127894 1.94442 -1.36285e-19)
(0.180801 1.86653 0)
(0.15149 1.75113 -1.10454e-19)
(0.12772 1.7763 0)
(0.262448 1.67071 -1.64167e-19)
(0.184646 1.61753 5.35784e-19)
(0.191546 1.78318 9.59837e-20)
(0.231799 1.85823 3.75019e-20)
(0.196335 1.86193 3.01097e-20)
(0.275875 1.80315 -8.72286e-20)
(0.222653 1.75349 1.0608e-19)
(0.225077 1.75724 8.13991e-20)
(0.0392009 1.76727 -4.6367e-20)
(0.0205044 1.74393 0)
(0.0315494 1.72306 1.84077e-19)
(0.0337453 1.74036 0)
(0.0154524 1.71867 -1.75183e-19)
(0.00277129 1.72959 0)
(0.00257619 1.76562 -3.72232e-20)
(0.00489048 1.76011 0)
(0.00798038 1.7686 0)
(0.00892611 1.76501 4.15179e-20)
(0.00603574 1.76651 -1.76304e-21)
(0.0286419 1.77038 1.92569e-19)
(0.0144822 1.77127 1.29266e-21)
(-0.00504476 1.75536 3.03051e-20)
(-0.00638816 1.75341 -2.14731e-20)
(-0.000529816 1.78802 0)
(-0.00996369 1.78133 0)
(0.0120822 1.75315 1.08545e-19)
(0.0189117 1.76092 8.4509e-20)
(0.0119997 1.75202 -1.1371e-19)
(0.0239208 1.76655 0)
(0.022602 1.76317 -5.69147e-20)
(0.0157136 1.76121 2.74562e-20)
(0.00437266 1.75415 -8.35878e-21)
(-0.00473785 1.75422 -3.66825e-20)
(0.00979031 1.75902 -1.40751e-20)
(0.0125491 1.7664 5.64707e-20)
(1.01489 -0.00584188 -2.90395e-19)
(1.00781 0.014463 3.00538e-19)
(1.01182 0.000660631 0)
(0.981109 0.061915 4.39035e-19)
(0.964684 0.0237888 -4.98438e-19)
(0.936003 0.018046 5.76986e-19)
(0.974324 0.0646882 -5.73119e-20)
(1.03061 0.0103547 0)
(1.0401 -0.00607694 2.62342e-19)
(1.03388 -0.000167229 -2.61366e-19)
(1.01034 0.0249334 -1.50804e-20)
(1.01721 0.0184829 1.34795e-19)
(0.995762 0.0421851 0)
(0.983797 0.0347353 -4.71631e-20)
(1.01293 0.0282593 0)
(1.00071 0.0240378 0)
(1.01218 0.00375394 0)
(1.01637 -0.000572796 0)
(1.00539 0.0123875 9.89679e-20)
(1.00165 0.0119427 -2.11543e-19)
(0.968699 0.0126256 -1.05038e-19)
(0.973119 0.00985825 -1.15377e-19)
(0.99128 0.0591228 2.08916e-19)
(1.04592 0.0565811 0)
(1.02959 0.0918349 0)
(0.0203459 1.76765 -2.81556e-20)
(-0.00996794 1.75698 -2.34414e-21)
(0.00727291 1.74857 0)
(-0.0028194 1.78014 2.87665e-20)
(-0.0111689 1.78355 3.67692e-21)
(-0.0105252 1.78481 -3.54903e-21)
(0.0119961 1.76986 5.48588e-20)
(-0.00135632 1.75763 -3.03773e-21)
(0.000621112 1.75798 1.83502e-20)
(0.00853852 1.77707 -2.94252e-20)
(0.00464961 1.76672 -5.41009e-21)
(0.00531348 1.74145 2.05054e-21)
(0.0194744 1.73037 3.09075e-20)
(0.359434 1.80628 -1.63992e-19)
(0.28296 1.79748 1.08095e-19)
(0.619624 1.77274 -2.85316e-19)
(0.504206 1.88828 -1.87475e-19)
(0.521626 1.85074 0)
(0.343626 1.55083 1.82008e-19)
(0.359285 1.54152 2.60858e-19)
(0.180457 1.57592 3.91472e-20)
(0.174242 1.57572 -6.01743e-19)
(0.251458 1.57179 4.79662e-19)
(0.275303 1.58453 0)
(0.202438 1.58031 -3.80695e-19)
(0.105483 1.64577 7.55649e-19)
(0.113045 1.60126 -5.25553e-20)
(0.0626629 1.6117 -1.0454e-18)
(0.747021 1.46934 8.69965e-19)
(0.52545 1.50841 0)
(1.0351 -0.00558342 9.01155e-21)
(1.02337 0.0356699 -7.79747e-21)
(1.01785 0.0352376 -1.40746e-19)
(1.01201 0.0217961 1.47204e-19)
(1.0245 0.00363499 0)
(0.443144 1.52315 0)
(0.324336 1.41248 0)
(0.523341 1.12465 0)
(0.298411 1.31595 0)
(0.779672 2.11082 2.27325e-19)
(0.865259 1.84767 0)
(0.563286 2.01282 7.21226e-21)
(0.523725 1.67859 0)
(0.638696 1.7082 -6.69923e-19)
(0.639118 1.7878 0)
(0.857536 0.143383 0)
(0.83583 0.165839 8.11002e-20)
(0.918281 0.104799 4.03125e-19)
(0.864895 0.0994664 -1.58525e-19)
(0.857256 0.0694749 -5.04833e-19)
(0.989619 0.200244 -2.55047e-19)
(0.924949 0.270698 -1.28612e-20)
(0.838787 0.262665 3.55541e-19)
(0.91534 0.211593 2.86344e-19)
(0.93835 0.142168 -5.07168e-19)
(0.90727 0.143075 6.52156e-20)
(0.857671 0.227835 -1.32905e-19)
(0.908473 0.185283 0)
(0.957638 0.153215 -2.44864e-19)
(0.953847 0.153669 0)
(0.956306 0.200145 0)
(1.06042 0.0921692 9.16317e-20)
(0.977324 0.139036 -1.35038e-20)
(0.988826 0.19268 -1.34687e-19)
(1.03758 0.199558 0)
(1.01403 0.0403603 2.2436e-19)
(1.00706 0.0469022 2.79835e-19)
(1.01271 0.046246 -2.21329e-19)
(1.01526 0.0589388 -1.87863e-19)
(0.99237 0.0655696 -3.09046e-19)
(0.952939 0.068148 0)
(0.948506 0.0582167 0)
(0.927894 0.0618815 -2.06628e-19)
(0.909577 0.068063 8.60285e-20)
(1.00727 0.0810272 2.53928e-19)
(0.986463 0.0919526 -2.73095e-19)
(0.996023 0.0978631 2.40516e-19)
(0.994753 0.108389 0)
(0.999192 0.0821468 0)
(0.997794 0.0795651 -1.14593e-19)
(1.00965 0.0824317 -2.04031e-19)
(0.0403863 1.79725 1.99629e-19)
(0.163838 2.43475 -1.72143e-19)
(0.664261 2.73988 1.14336e-19)
(0.812382 3.17273 -1.24722e-19)
(0.866716 2.48035 1.04308e-18)
(0.900257 2.547 -4.76417e-19)
(0.839152 1.93265 -1.28425e-20)
(0.777399 2.95349 3.15836e-19)
(0.79884 2.85894 -3.36332e-19)
(0.855512 3.33108 -3.22346e-19)
(1.08181 2.94926 4.49476e-19)
(1.08354 2.82864 0)
(0.477965 0.532018 2.07304e-20)
(0.463494 1.261 4.47518e-19)
(0.581155 0.626851 3.70634e-19)
(0.53701 0.44684 5.07322e-19)
(0.588746 0.450634 3.99253e-19)
(0.599206 0.468771 -5.71061e-19)
(0.577256 0.542179 4.59656e-19)
(0.545155 0.502095 -2.25371e-19)
(0.523336 0.489652 5.19031e-19)
(0.793926 0.261526 5.4434e-19)
(0.75859 0.291394 0)
(0.763281 0.271202 1.13433e-20)
(0.688178 0.479446 1.58283e-19)
(0.663925 0.441072 -5.89521e-19)
(0.614132 0.477616 3.64397e-20)
(0.646675 0.462111 0)
(0.596242 0.590148 4.70744e-20)
(0.717718 0.776286 3.51673e-20)
(0.630814 0.764632 -4.62499e-20)
(0.737869 0.746363 -2.85464e-20)
(0.801459 0.850782 3.68055e-21)
(0.799825 0.835523 -3.74906e-21)
(0.809149 0.54287 -1.82425e-19)
(0.850275 0.606101 2.68784e-20)
(0.908425 0.676691 0)
(0.914535 0.654992 -2.63297e-20)
(0.94663 0.286201 6.5976e-20)
(1.07986 0.277014 1.74008e-20)
(0.990176 0.234689 1.03286e-19)
(0.923888 0.349882 -1.49557e-19)
(0.972894 0.398361 0)
(1.01111 0.379921 0)
(0.84996 0.337164 1.3416e-20)
(0.801433 0.301366 0)
(0.822121 0.285823 1.88039e-19)
(0.842457 0.269477 -1.26717e-20)
(0.855417 0.410075 7.20451e-19)
(0.830357 0.455004 1.79206e-19)
(0.816076 0.435858 -2.30179e-19)
(0.751308 0.391954 -2.48882e-19)
(0.733614 0.39587 1.61784e-19)
(0.716726 0.402853 -1.59042e-19)
(1.00373 0.00679833 2.40368e-19)
(1.00624 -0.00763605 0)
(1.00586 0.00799488 1.62391e-19)
(1.01159 0.00624944 -2.1552e-21)
(1.00991 0.000210813 1.75585e-19)
(1.01397 0.0182162 -3.67637e-19)
(1.00849 0.00351353 0)
(1.00375 -0.00940823 -7.77616e-20)
(1.00777 0.0030205 1.97727e-19)
(1.01355 -0.000215399 -9.89176e-20)
(1.00949 -0.00313574 7.32548e-20)
(0.00677409 1.81719 0)
(0.00871784 1.77176 0)
(0.0114325 1.83072 0)
(0.0119223 1.82643 0)
(0.0288035 1.7773 6.70482e-20)
(0.0252062 1.79935 -1.4061e-20)
(0.0885857 1.77843 -3.66472e-20)
(0.0765407 1.77957 -7.18915e-22)
(0.020417 1.76587 -7.21039e-20)
(0.0186932 1.7674 5.32729e-20)
(0.0293255 1.77566 -2.16607e-20)
(0.0148462 1.78723 2.71093e-20)
(0.015915 1.78609 -2.09139e-21)
(0.00968407 1.77477 7.67879e-21)
(0.0408661 1.72411 -1.99673e-19)
(0.0648419 1.72273 0)
(0.0792884 1.71791 1.26885e-19)
(0.0951594 1.76898 7.9835e-20)
(0.184408 1.70767 -8.50098e-20)
(0.138757 1.66308 0)
(0.128288 1.63814 -5.47962e-19)
(0.168055 1.64687 3.98846e-19)
(0.16536 1.72285 -3.17899e-19)
(0.124943 1.71309 1.30766e-19)
(0.105337 1.6826 0)
(0.016156 1.75247 -1.26034e-19)
(0.00296787 1.75422 -1.72564e-19)
(0.00525082 1.75282 0)
(0.0249828 1.75985 -4.31143e-21)
(0.0364185 1.76411 6.03466e-20)
(0.00690089 1.78067 6.91238e-21)
(0.00743668 1.7865 -1.0484e-19)
(0.00338538 1.78465 2.60483e-20)
(-0.00406879 1.76606 4.13356e-20)
(0.00287408 1.76463 0)
(-0.00186526 1.78709 0)
(0.00264684 1.78239 3.22239e-20)
(0.00121017 1.78643 -9.86897e-21)
(-0.000395423 1.78709 0)
(-0.00513338 1.78478 2.71388e-20)
(-0.00166043 1.77932 -5.23255e-20)
(0.997342 0.0177825 0)
(1.00349 0.0281732 -2.32973e-20)
(1.00782 0.0091058 -1.68669e-19)
(1.01291 0.0147359 0)
(1.01921 0.0307051 0)
(0.995316 0.00363876 -9.09401e-21)
(0.994076 0.00605253 2.76204e-19)
(1.00094 0.0116907 3.5094e-19)
(1.01366 0.0113498 0)
(1.00976 0.0108244 0)
(1.00108 0.0134458 1.76463e-19)
(1.00197 0.0136195 0)
(1.00125 0.0150952 0)
(0.0151297 1.74351 0)
(0.0227318 1.74767 2.14826e-22)
(0.0217263 1.75899 1.2901e-20)
(0.00253508 1.7832 0)
(0.00729025 1.75587 1.5664e-20)
(0.00662287 1.76113 -1.21319e-20)
(-0.0037653 1.78448 0)
(0.381899 1.68059 0)
(0.320153 1.75998 -2.51937e-19)
(0.291269 1.73177 0)
(0.411399 1.74662 3.70338e-20)
(0.435482 1.79293 0)
(0.424753 1.79951 -3.98644e-20)
(0.759117 1.62983 -2.03091e-20)
(0.774659 1.45107 -1.10284e-18)
(0.829351 1.4282 1.18825e-18)
(0.58335 1.50981 2.72482e-19)
(0.539473 1.56412 0)
(0.619639 1.57259 0)
(0.712099 1.47843 0)
(0.642872 1.49113 -9.58073e-19)
(0.386776 1.63756 -5.32325e-19)
(0.482629 1.56205 -1.38125e-19)
(0.518704 1.63063 1.1274e-19)
(0.384535 1.53844 0)
(0.478021 1.53803 0)
(0.408099 1.53907 -3.08927e-19)
(0.460272 1.57856 0)
(0.172574 1.15888 0)
(0.0574916 0.838862 5.89248e-19)
(0.348018 0.593498 3.40882e-20)
(-0.119212 1.44802 0)
(-0.0322831 1.56091 -8.37283e-19)
(0.620634 0.768282 3.18177e-21)
(0.598461 0.999897 0)
(0.637185 0.96193 -1.46439e-20)
(0.440965 0.817971 0)
(0.472064 0.818027 0)
(0.764304 2.22303 -3.2535e-20)
(0.653795 2.5706 -1.76671e-19)
(0.454945 2.40286 3.03994e-19)
(0.512888 2.21589 -1.19373e-19)
(0.82449 1.9846 0)
(0.840182 1.90211 1.77458e-19)
(0.868944 1.77587 -6.22642e-20)
(0.908129 1.59378 -2.78984e-21)
(0.441555 1.8476 0)
(0.17881 1.77326 -1.7662e-19)
(0.255909 1.71228 0)
(0.881487 0.20223 0)
(0.837195 0.165295 0)
(0.802923 0.173027 0)
(0.859221 0.218212 -2.9573e-19)
(0.811089 0.212795 1.86806e-19)
(0.900596 0.0712311 -1.78716e-19)
(0.920666 0.0853255 0)
(0.922154 0.0876158 7.86733e-20)
(0.871007 0.0738181 3.15063e-19)
(0.874126 0.0718842 -1.95489e-19)
(0.924861 3.4685 -7.74064e-19)
(0.891583 3.42317 0)
(0.959611 3.45288 -1.81392e-18)
(0.555076 3.65389 1.78615e-18)
(0.693925 3.31446 7.23369e-19)
(0.473457 0.660058 -6.07789e-19)
(0.150889 1.13182 0)
(0.647851 0.458031 -4.91661e-20)
(0.616906 0.494263 9.71408e-21)
(0.675816 0.567202 -1.09414e-19)
(0.603548 0.54217 9.27968e-20)
(0.625602 0.514368 2.16008e-19)
(0.664133 0.500328 0)
(0.676308 0.553271 0)
(0.627237 0.52254 0)
(0.979371 0.550481 -3.61037e-20)
(0.824717 0.464407 -1.74099e-19)
(0.819968 0.51122 9.73098e-20)
(0.855404 0.488234 -1.31767e-19)
(1.00082 0.448141 0)
(1.04178 0.513727 -1.03601e-20)
(0.769095 0.366793 -3.77255e-19)
(0.785084 0.359698 5.62472e-19)
(0.750981 0.367235 2.93242e-19)
(0.754465 0.341434 -3.24616e-19)
(0.783959 0.310248 -2.5012e-19)
(0.757223 0.315793 3.08289e-19)
(1.01352 -0.00650443 -1.87251e-19)
(1.01974 -0.00230946 3.74046e-19)
(0.995128 0.0126632 2.37541e-19)
(1.00087 0.0284291 -2.79569e-19)
(0.988525 0.023774 0)
(0.995092 0.00356395 -4.40678e-19)
(0.0485858 1.78404 2.70638e-20)
(0.046783 1.76945 0)
(0.0581324 1.77101 2.47011e-19)
(0.066333 1.77906 -2.23924e-19)
(0.0663075 1.78636 6.78173e-20)
(0.0529529 1.76738 0)
(0.00292346 1.74639 0)
(0.00249534 1.77227 -1.07814e-20)
(0.00282338 1.77882 9.81578e-21)
(0.00328263 1.76964 5.06387e-21)
(0.00728452 1.74086 -1.8926e-20)
(0.00548655 1.74429 -3.61365e-20)
(0.448556 1.7563 -6.24467e-19)
(0.430075 1.70025 -6.77596e-19)
(0.407548 1.72205 -1.58931e-19)
(0.429054 1.70675 2.55613e-20)
(0.4714 1.6195 0)
(0.477689 1.75992 1.13145e-19)
(0.478597 1.705 -1.11234e-19)
(0.413733 1.73589 1.54079e-19)
(0.420863 1.72506 0)
(0.377113 1.72652 0)
(0.376069 1.58916 8.20773e-19)
(0.385504 1.56027 1.24733e-18)
(0.418298 1.58355 -8.47872e-19)
(0.358483 1.57096 -1.54004e-19)
(0.309096 1.58392 2.56399e-19)
(0.248557 1.56747 -6.28809e-19)
(0.859694 1.43886 -6.59329e-19)
(0.903242 1.52642 0)
(0.893333 1.44493 -5.14593e-19)
(0.801219 1.78169 0)
(0.810823 1.7017 0)
(0.581861 2.83944 8.249e-19)
(0.742461 3.39206 9.20131e-19)
(0.656924 3.3336 -8.03217e-19)
(0.63898 1.07532 0)
(0.678829 0.926246 1.53231e-19)
(0.515023 0.928012 1.04884e-18)
(0.651143 2.57811 0)
(0.661417 3.02555 -5.703e-19)
(0.598008 2.77776 0)
(0.604745 0.536312 -1.07012e-19)
(0.709876 0.641555 2.21041e-19)
(0.725066 0.620381 1.74886e-19)
(0.667213 0.513175 2.12241e-20)
(0.681629 0.556077 -1.06568e-19)
(0.610981 3.1751 -6.77322e-19)
(0.594201 3.10393 6.24322e-19)
(0.558681 2.8151 -1.22307e-18)
(0.378765 2.67075 7.89406e-19)
(0.186054 2.54949 2.45796e-19)
(0.461757 2.91555 -1.59454e-19)
(0.40294 2.77897 -2.71347e-19)
(0.317845 2.61228 -3.53716e-20)
(0.175371 2.57475 -4.13544e-19)
)
;

boundaryField
{
    wall-4
    {
        type            noSlip;
    }
    velocity-inlet-5
    {
        type            fixedValue;
        value           uniform (1 0 0);
    }
    velocity-inlet-6
    {
        type            fixedValue;
        value           uniform (0 3 0);
    }
    pressure-outlet-7
    {
        type            zeroGradient;
    }
    wall-8
    {
        type            noSlip;
    }
    frontAndBackPlanes
    {
        type            empty;
    }
}


// ************************************************************************* //
