/*--------------------------------*- C++ -*----------------------------------*\
| =========                 |                                                 |
| \\      /  F ield         | OpenFOAM: The Open Source CFD Toolbox           |
|  \\    /   O peration     | Version:  2412                                  |
|   \\  /    A nd           | Website:  www.openfoam.com                      |
|    \\/     M anipulation  |                                                 |
\*---------------------------------------------------------------------------*/
FoamFile
{
    version     2.0;
    format      ascii;
    arch        "LSB;label=32;scalar=64";
    class       volScalarField;
    location    "3";
    object      p;
}
// * * * * * * * * * * * * * * * * * * * * * * * * * * * * * * * * * * * * * //

dimensions      [0 2 -2 0 0 0 0];

internalField   nonuniform List<scalar> 
38
(
-0.761877
-0.471871
-0.572329
-0.548572
-0.873936
-0.277555
-0.381879
-0.766917
-0.681563
-0.964854
-0.159243
-0.234433
-0.400603
-0.0867669
-0.268436
-0.0341985
-0.138216
-0.0627803
0.0524178
-0.225243
-0.289977
-0.362557
0.0568671
0.214219
0.16628
0.0918014
-0.140679
-0.0357727
0.367379
0.300585
0.335082
0.139627
0.0665161
-0.0465266
-0.0711416
0.0914196
0.190465
0.21516
)
;

boundaryField
{
    wall-4
    {
        type            zeroGradient;
    }
    velocity-inlet-5
    {
        type            zeroGradient;
    }
    velocity-inlet-6
    {
        type            zeroGradient;
    }
    pressure-outlet-7
    {
        type            fixedValue;
        value           nonuniform List<scalar> 0();
    }
    wall-8
    {
        type            zeroGradient;
    }
    frontAndBackPlanes
    {
        type            empty;
    }
    procBoundary21to6
    {
        type            processor;
        value           nonuniform List<scalar> 2(-0.172618 0.0275301);
    }
    procBoundary21to18
    {
        type            processor;
        value           uniform 0.43941;
    }
    procBoundary21to19
    {
        type            processor;
        value           nonuniform List<scalar> 4(0.214667 0.330169 0.376754 0.376754);
    }
    procBoundary21to22
    {
        type            processor;
        value           nonuniform List<scalar> 3(-0.93398 -0.320125 0.0302953);
    }
    procBoundary21to23
    {
        type            processor;
        value           nonuniform List<scalar> 3(0.248149 0.337403 0.250372);
    }
}


// ************************************************************************* //
