/*--------------------------------*- C++ -*----------------------------------*\
| =========                 |                                                 |
| \\      /  F ield         | OpenFOAM: The Open Source CFD Toolbox           |
|  \\    /   O peration     | Version:  2412                                  |
|   \\  /    A nd           | Website:  www.openfoam.com                      |
|    \\/     M anipulation  |                                                 |
\*---------------------------------------------------------------------------*/
FoamFile
{
    version     2.0;
    format      ascii;
    arch        "LSB;label=32;scalar=64";
    class       volVectorField;
    location    "2";
    object      U;
}
// * * * * * * * * * * * * * * * * * * * * * * * * * * * * * * * * * * * * * //

dimensions      [0 1 -1 0 0 0 0];

internalField   nonuniform List<vector> 
38
(
(1.34616 0.764306 0)
(1.20841 1.17198 0)
(1.25926 0.921327 0)
(1.35694 0.921056 -1.38393e-19)
(1.28511 0.737486 0)
(1.36373 0.525482 6.44445e-20)
(1.27664 0.511602 -7.43965e-20)
(1.31995 0.365686 -1.38107e-19)
(1.28503 0.352782 0)
(1.11377 0.666515 -1.61131e-19)
(1.07814 0.739576 4.3044e-19)
(1.13888 0.897599 -4.99152e-19)
(1.08731 0.613697 0)
(1.14725 0.579855 0)
(1.09472 1.17135 1.40231e-19)
(0.9314 1.31989 0)
(0.764765 1.13723 -2.36425e-19)
(1.0061 1.07538 2.65044e-20)
(0.616056 0.70945 5.31408e-19)
(1.18148 0.296336 -3.441e-20)
(1.17249 0.364178 0)
(1.1951 0.329259 0)
(0.691833 0.934577 6.21633e-19)
(0.688608 0.940891 -2.53309e-19)
(0.86671 0.923156 -7.92949e-20)
(0.855911 0.968909 8.00955e-20)
(0.749483 0.645593 -8.9398e-19)
(0.77214 0.806155 2.38299e-19)
(0.904882 0.821805 0)
(0.861795 0.769507 -3.19621e-19)
(1.04281 0.319165 4.49816e-19)
(0.998022 0.390543 0)
(0.343794 0.564202 6.08817e-19)
(0.38097 0.713423 5.39232e-19)
(0.591335 0.807006 1.42218e-18)
(0.632218 0.687394 -1.33758e-18)
(0.373928 0.604047 -1.24059e-19)
(0.525835 0.545629 -4.75771e-19)
)
;

boundaryField
{
    wall-4
    {
        type            noSlip;
    }
    velocity-inlet-5
    {
        type            fixedValue;
        value           nonuniform List<vector> 0();
    }
    velocity-inlet-6
    {
        type            fixedValue;
        value           nonuniform List<vector> 0();
    }
    pressure-outlet-7
    {
        type            zeroGradient;
    }
    wall-8
    {
        type            noSlip;
    }
    frontAndBackPlanes
    {
        type            empty;
    }
    procBoundary6to7
    {
        type            processor;
        value           nonuniform List<vector> 2((0.567633 0.46482 0) (0.364503 0.485335 0));
    }
    procBoundary6to8
    {
        type            processor;
        value           nonuniform List<vector> 5((1.0059 0.608908 -1.58101e-19) (0.656345 0.57778 -1.1622e-18) (0.815493 0.608799 5.59201e-19) (0.854733 0.663655 -8.1113e-19) (1.02926 0.378047 0));
    }
    procBoundary6to9
    {
        type            processor;
        value           nonuniform List<vector> 3((1.30715 0.171953 -9.2533e-20) (1.17048 0.293241 9.89598e-19) (1.04791 0.246629 4.6845e-19));
    }
    procBoundary6to19
    {
        type            processor;
        value           nonuniform List<vector> 4((0.708953 1.16392 -1.01872e-19) (0.389944 0.951079 5.3181e-19) (0.589759 0.986898 7.2041e-19) (-0.0572398 0.724045 8.46689e-19));
    }
    procBoundary6to21
    {
        type            processor;
        value           nonuniform List<vector> 2((1.3248 1.15448 2.0013e-19) (0.939692 1.52362 -4.98472e-20));
    }
}


// ************************************************************************* //
