/*--------------------------------*- C++ -*----------------------------------*\
| =========                 |                                                 |
| \\      /  F ield         | OpenFOAM: The Open Source CFD Toolbox           |
|  \\    /   O peration     | Version:  2412                                  |
|   \\  /    A nd           | Website:  www.openfoam.com                      |
|    \\/     M anipulation  |                                                 |
\*---------------------------------------------------------------------------*/
FoamFile
{
    version     2.0;
    format      ascii;
    arch        "LSB;label=32;scalar=64";
    class       volVectorField;
    location    "6";
    object      U;
}
// * * * * * * * * * * * * * * * * * * * * * * * * * * * * * * * * * * * * * //

dimensions      [0 1 -1 0 0 0 0];

internalField   nonuniform List<vector> 
39
(
(0.677864 0.129917 5.69089e-19)
(0.714815 0.20073 -5.90336e-19)
(0.66552 0.170425 -3.97886e-19)
(0.620095 0.223921 1.14864e-19)
(0.685408 0.249351 4.2961e-19)
(0.664217 0.273651 1.03344e-19)
(0.643083 0.20598 2.16185e-19)
(0.717482 0.341182 -2.38354e-20)
(0.731206 0.308806 2.18724e-19)
(0.694119 0.40703 0)
(0.797719 0.220746 3.38187e-19)
(0.798289 0.49487 -4.02171e-19)
(0.712626 0.461316 2.84445e-19)
(0.876201 0.407486 -2.79292e-19)
(0.799997 0.257251 -1.89971e-19)
(0.759279 0.294926 0)
(0.765411 0.274677 1.2272e-20)
(0.930533 0.333311 1.55848e-19)
(0.974508 0.393143 0)
(0.842489 0.335837 1.18063e-20)
(0.810826 0.302828 0)
(0.865301 0.410054 7.61212e-19)
(0.825961 0.470945 1.90284e-19)
(0.817501 0.443473 -2.52604e-19)
(0.752324 0.407197 2.73078e-19)
(0.733539 0.408957 1.82697e-19)
(0.717462 0.407246 -1.78848e-19)
(0.976803 0.55549 -1.04402e-19)
(0.826832 0.488356 -1.83132e-19)
(0.833932 0.522684 8.86955e-20)
(0.857514 0.499834 -1.36689e-19)
(0.995362 0.461176 0)
(1.01934 0.522573 -7.97281e-21)
(0.779326 0.374171 -4.10901e-19)
(0.792431 0.368264 -4.64911e-19)
(0.760181 0.368634 3.20915e-19)
(0.75224 0.350105 -3.56296e-19)
(0.794073 0.317859 -2.70157e-19)
(0.754085 0.319043 3.32697e-19)
)
;

boundaryField
{
    wall-4
    {
        type            noSlip;
    }
    velocity-inlet-5
    {
        type            fixedValue;
        value           nonuniform List<vector> 0();
    }
    velocity-inlet-6
    {
        type            fixedValue;
        value           nonuniform List<vector> 0();
    }
    pressure-outlet-7
    {
        type            zeroGradient;
    }
    wall-8
    {
        type            noSlip;
    }
    frontAndBackPlanes
    {
        type            empty;
    }
    procBoundary8to6
    {
        type            processor;
        value           nonuniform List<vector> 5((1.1202 0.537025 0) (0.773056 0.552023 1.00239e-19) (0.80698 0.545962 -1.86372e-19) (0.939528 0.636198 -1.95092e-20) (1.02265 0.374742 0));
    }
    procBoundary8to7
    {
        type            processor;
        value           nonuniform List<vector> 5((0.640417 0.306062 0) (0.699942 0.356168 0) (0.697264 0.371586 0) (0.699564 0.425622 3.62807e-19) (0.693381 0.490961 1.83058e-19));
    }
    procBoundary8to9
    {
        type            processor;
        value           uniform (0.945562 0.288682 7.06076e-20);
    }
    procBoundary8to10
    {
        type            processor;
        value           nonuniform List<vector> 4((0.713875 0.167415 1.95994e-19) (0.818278 0.209616 -1.97577e-19) (0.835982 0.270809 -4.73099e-19) (0.832186 0.282073 1.97912e-19));
    }
}


// ************************************************************************* //
