/*--------------------------------*- C++ -*----------------------------------*\
| =========                 |                                                 |
| \\      /  F ield         | OpenFOAM: The Open Source CFD Toolbox           |
|  \\    /   O peration     | Version:  2412                                  |
|   \\  /    A nd           | Website:  www.openfoam.com                      |
|    \\/     M anipulation  |                                                 |
\*---------------------------------------------------------------------------*/
FoamFile
{
    version     2.0;
    format      ascii;
    arch        "LSB;label=32;scalar=64";
    class       volScalarField;
    location    "11";
    object      p;
}
// * * * * * * * * * * * * * * * * * * * * * * * * * * * * * * * * * * * * * //

dimensions      [0 2 -2 0 0 0 0];

internalField   nonuniform List<scalar> 
918
(
0.220716
0.931673
0.00653414
0.219662
0.000484431
0.898816
-0.840586
0.409039
0.200104
-0.1335
0.0206124
0.191683
0.759258
0.528236
-1.45933
0.0154115
0.359033
-0.641586
0.198272
0.00590899
0.505482
0.207172
0.210549
0.201441
0.254803
0.525605
0.640117
-0.000600539
-0.00144607
-0.00119634
0.00173883
-0.00209413
0.00538129
0.782427
0.833564
0.856237
0.1688
0.0680227
-0.688486
-0.774429
-0.731101
-0.888998
0.393425
0.400318
-0.497946
0.406526
0.419694
0.189549
0.199644
0.200562
0.201815
0.200718
0.202542
0.311795
-0.148997
-0.218319
-0.0824562
-0.0644776
0.0838605
0.0184413
0.0116174
0.0222468
0.0230592
0.131254
0.188502
0.185507
0.194617
0.204533
0.871228
0.843096
0.869257
0.78306
0.799555
0.737111
0.70969
0.547059
0.568425
0.51536
0.504319
-1.89154
-2.84955
-0.863404
-0.598883
0.0013951
0.0218438
0.0284158
0.339213
0.347408
0.352613
0.367124
0.824624
-0.586219
-0.777978
0.198023
0.196005
0.206592
0.207548
0.203763
0.202849
0.0133656
0.0175164
-0.00482424
0.00510302
0.00263961
0.47317
0.465371
0.202237
0.198829
0.211869
0.236541
0.221966
-0.0267549
0.268712
0.300589
0.316474
0.500987
0.502
0.508278
0.613328
0.576875
0.677344
0.70019
0.00812805
0.0024231
0.0121702
0.00871741
0.0110465
0.16795
0.16314
0.181878
0.171433
0.174784
-0.0213726
-0.162181
0.16457
0.181405
-0.605468
-0.680424
-0.711031
-0.770882
-0.890872
0.148079
0.383952
0.38881
-0.512798
-0.419202
-0.581322
-0.350739
-0.427995
0.175226
0.185326
0.178963
0.195867
0.191557
0.192058
0.203572
0.200925
0.202384
0.349973
0.425877
0.261569
0.238174
-0.404879
-0.266269
-0.405653
-0.0331576
-0.0221606
0.0940638
0.112369
0.0774709
0.0720365
-0.00691309
0.00506088
-0.00642795
0.0251756
0.0274824
0.124903
0.115002
0.140299
0.146807
0.181306
0.180754
0.183956
0.182616
0.660416
0.682556
0.69027
0.663928
-3.84306
-6.63053
-0.268897
-0.120667
0.00110258
0.00204492
0.000785264
0.00200605
0.00317777
0.000522224
0.0440609
0.0389327
0.0324979
0.0355198
0.327767
0.331497
0.80373
0.865872
0.742013
0.732937
0.185985
0.189688
0.193698
0.189298
0.0257295
0.0197195
0.025798
0.419591
0.443341
0.4425
-0.0636777
-0.151284
0.0214814
0.0476167
0.316352
0.301647
0.322606
0.382822
0.422151
0.707448
0.726054
0.724205
0.733046
0.777031
0.793369
0.758792
0.151262
0.160298
0.156255
0.184863
0.1832
0.182819
0.178549
0.181454
0.179643
-0.319497
-0.701816
0.0912515
0.181065
0.232805
0.200724
0.275298
0.432674
0.361619
0.374934
0.381213
-0.283791
-0.355732
0.206723
0.183987
0.0736146
0.101148
0.0861218
0.63153
0.592175
0.641995
0.61533
0.576736
0.602153
-0.659989
-2.17216
-1.28023
0.254537
0.0537554
0.14826
0.0634743
0.0491903
0.0528309
0.819289
0.861773
0.474913
0.618145
0.582205
0.462739
0.494268
0.550962
0.475104
0.510332
0.546582
0.525525
-0.00267711
-0.0119299
-0.0488184
0.508861
0.676382
-0.173881
-0.220386
-0.283348
0.122753
0.157464
0.139407
0.841373
0.686332
0.816129
0.198598
0.19911
0.0093145
0.0142901
0.2021
0.202454
0.00605185
0.0100628
0.125751
-1.17602
-0.185733
0.190392
0.182071
0.198209
-0.109125
0.310676
0.0221467
0.0927567
0.0596574
0.18685
0.14028
0.104209
0.00694773
0.0191305
0.0137911
-0.459892
0.195527
0.193846
0.197538
0.199148
0.199613
0.00920444
0.00910246
0.00519473
0.0120059
0.0085127
0.00815378
0.167943
0.179142
-0.528314
0.198044
0.199824
0.199839
0.193493
0.198864
0.196789
0.017031
0.0123192
0.0133811
-0.0736135
0.0410749
0.393881
0.516217
0.332713
0.100664
-0.153909
0.285292
0.357124
0.248387
0.42567
0.364286
0.390039
-0.130899
-0.27419
-0.111081
-0.166479
0.188383
0.188461
0.182219
0.17472
0.193007
0.191517
0.195985
0.193624
0.196327
0.197353
-0.0627956
-0.0642956
-0.133931
-0.215259
0.334037
0.424355
0.246742
0.250533
0.148513
0.0246564
0.0257125
0.0227137
0.0120542
0.0655156
0.0645433
0.0763416
0.0780465
0.0495787
0.047126
0.0595139
0.0589497
0.0621051
0.182494
0.1826
0.18687
0.193797
0.146387
0.150706
0.121485
0.138598
0.128468
0.072214
0.104439
0.0833525
0.00848166
0.00963043
0.00782798
0.0242611
0.031088
0.0151535
0.0127438
0.0134786
0.0107282
0.0114057
0.0175545
0.0222288
-0.46454
-0.566909
0.846027
0.67579
0.207892
0.185984
0.190906
0.188974
0.194232
0.195792
0.195812
0.19379
0.19121
0.179272
0.180905
0.177557
0.177354
-0.477603
-0.570942
-0.424931
-0.466535
-0.120963
0.301161
0.0520855
-0.0089487
-0.0138923
0.199921
0.55842
0.397518
0.470378
0.491024
-0.690574
-0.29215
-0.617749
-0.0206379
-0.21337
0.39323
0.44786
0.472109
0.416526
0.362268
-0.396823
0.193833
-0.379161
-0.341343
-0.155173
-0.244344
0.415576
0.349088
0.356985
0.378369
0.398427
0.351769
0.332572
0.327591
0.368893
0.373224
0.168515
-0.037411
-0.0865602
-0.119142
0.329905
0.208805
0.26363
0.18482
0.182614
0.18599
0.183746
0.170503
0.176617
0.171148
0.17813
0.179543
0.189116
0.188374
0.184338
0.186179
-0.039834
-0.0259125
-0.0996134
-0.320642
-0.234927
-0.32238
-0.157157
0.122347
0.110498
0.300271
0.322951
0.0685853
-0.237823
-0.154648
-0.279948
0.120948
0.0344764
0.110355
0.162683
0.179044
0.144876
0.215101
0.200401
0.0420095
0.0532431
0.0317413
0.0313338
0.0999094
0.125689
0.116839
0.0495956
0.0481546
0.0259668
0.0264856
0.0755835
0.0443529
0.0587428
0.0687491
0.0234131
0.0260311
0.0294325
0.0432627
0.0412853
0.0442399
0.17845
0.179631
0.179392
0.189803
0.201593
0.214404
0.185196
0.163753
0.15682
0.160477
0.137802
0.145499
0.14284
0.151414
0.170143
0.176312
0.176106
0.177054
0.16297
0.16556
0.153604
0.156087
0.139506
0.123014
0.110731
0.0188162
0.0126691
0.0156086
0.0165803
0.0106131
0.0121454
0.0435921
0.034181
0.0401735
0.0351851
0.0383319
0.0180075
0.0189285
-0.422047
-0.311447
-0.546722
-0.544756
-0.594526
0.77352
0.833518
0.673611
0.488832
0.527253
0.698414
0.777781
0.444904
0.530026
0.545097
-0.0376431
0.590513
0.191584
0.190528
0.18657
0.185693
0.18793
-0.366014
-0.278328
-0.253765
-0.179281
0.0165365
0.139411
-0.175183
-0.32158
-0.147714
-0.177342
0.293633
0.310518
0.257153
0.283188
0.284262
0.12088
0.18363
0.236109
0.200883
0.237141
0.257246
0.218833
0.247817
0.200365
0.162418
0.16341
0.108354
0.128497
0.108305
0.0888039
0.178911
0.159107
0.168348
0.163033
0.180527
0.210418
0.202705
0.222772
0.241595
0.168728
0.135247
0.143339
0.168457
0.131933
0.142677
0.157415
0.0224316
0.0127174
0.00509778
-0.391186
-0.274128
-0.302793
-0.346016
-0.295717
0.0103953
-0.746146
-0.698164
-1.32853
0.146251
0.590089
0.370908
0.342772
0.395252
0.369983
0.369658
0.409048
0.417725
0.319391
0.343083
0.341878
0.295151
0.32075
0.346539
0.347033
0.177248
0.0621435
0.0450822
0.0167837
-0.108296
-0.0788144
0.126576
0.0503481
-0.018349
-0.0106283
0.14524
0.0497718
0.113023
0.140532
0.0760305
0.0379299
0.226765
0.28552
0.282609
0.258488
0.177816
0.187112
0.214238
0.24565
0.271797
0.304935
0.178961
0.18425
0.184954
0.182795
0.179649
0.181453
0.180901
0.182882
0.184178
0.186739
0.185193
0.0124533
0.0214962
-0.00551318
0.00149347
0.00475027
-0.0235748
0.0471345
-0.0197847
0.0358192
0.0351403
0.00206521
-0.012322
0.00325707
0.0191612
0.169253
0.19804
0.181337
0.127975
0.230633
0.397036
0.414271
0.363083
0.20727
0.231896
0.300533
0.0871654
0.0957076
0.0834916
0.108526
0.101501
0.0293009
0.0289395
0.0340156
0.0410201
0.0388678
0.0310391
0.0246637
0.0261857
0.0292728
0.027271
0.0260323
0.165671
0.161751
0.162579
0.156781
0.155077
0.167916
0.170782
0.172088
0.176198
0.177355
0.171111
0.174164
0.176545
0.0296893
0.0239415
0.0259072
0.0249919
0.0258318
0.0217976
0.0208156
-0.51964
-0.370473
-0.289832
-0.534044
-0.49511
-0.48309
-0.0628056
-0.18172
-0.123313
0.433184
0.200175
0.128011
0.169035
0.286847
-0.231502
0.0531494
-0.191758
0.720129
0.546789
0.718618
0.229823
-0.0646615
0.0771305
0.11885
-0.0166112
0.0281346
-0.0150185
-0.10985
-0.0845023
-0.0537648
0.0425155
-0.0158697
0.0555865
-0.135942
-0.155459
0.00363712
-0.038812
0.161794
0.222349
-0.243933
-0.143098
-0.253807
0.285771
0.303504
0.319139
0.293892
0.315551
0.245338
0.235441
0.254913
0.264426
0.255389
-1.07038
-0.78923
-1.73745
-1.08698
-0.657031
0.166342
0.146428
0.370466
0.281701
0.37023
0.353953
0.319135
0.28715
0.286812
0.324309
0.0440137
0.147325
0.120551
0.130532
0.0394206
-0.0216366
0.258851
0.252032
0.290274
0.314165
0.271884
0.315539
0.175485
0.176137
0.17497
0.1724
0.168943
0.170697
0.0985619
0.0759437
0.117361
0.097883
0.0634033
0.0574611
0.037404
0.0316006
0.0292672
0.0295548
0.033503
0.0384017
-0.470712
-0.530029
-0.662804
-0.652135
-0.410076
-0.521791
-0.483375
-0.657117
-0.535047
-0.402297
0.130223
0.484413
0.20166
0.58665
0.381235
0.523253
-0.0268462
0.173842
0.130502
0.0210866
-0.0130609
-0.139966
-0.608583
-0.537647
0.373892
0.388669
0.195055
-0.00689896
-0.246327
-0.0573122
0.208257
0.148233
0.18997
0.253185
0.250166
-0.329365
-0.25603
0.0124192
0.245511
-0.00956214
-0.0774317
-0.0366097
0.0865126
0.015509
)
;

boundaryField
{
    wall-4
    {
        type            zeroGradient;
    }
    velocity-inlet-5
    {
        type            zeroGradient;
    }
    velocity-inlet-6
    {
        type            zeroGradient;
    }
    pressure-outlet-7
    {
        type            fixedValue;
        value           uniform 0;
    }
    wall-8
    {
        type            zeroGradient;
    }
    frontAndBackPlanes
    {
        type            empty;
    }
}


// ************************************************************************* //
