/*--------------------------------*- C++ -*----------------------------------*\
| =========                 |                                                 |
| \\      /  F ield         | OpenFOAM: The Open Source CFD Toolbox           |
|  \\    /   O peration     | Version:  2412                                  |
|   \\  /    A nd           | Website:  www.openfoam.com                      |
|    \\/     M anipulation  |                                                 |
\*---------------------------------------------------------------------------*/
FoamFile
{
    version     2.0;
    format      ascii;
    arch        "LSB;label=32;scalar=64";
    class       surfaceScalarField;
    location    "11";
    object      phi;
}
// * * * * * * * * * * * * * * * * * * * * * * * * * * * * * * * * * * * * * //

dimensions      [0 3 -1 0 0 0 0];

oriented        oriented;

internalField   nonuniform List<scalar> 
1300
(
3.75095
5.62643
-6.27328
3.75095
-6.14971
5.62643
-4.44575
4.44575
-1.51378
1.51378
1.87621
1.87475
-4.8686
4.8686
-4.96798
4.96798
-2.87599
2.87599
-5.24656
5.24656
-5.06693
5.06693
4.68859
-4.68859
-4.96879
4.96879
-1.93835
1.93835
-4.69898
4.69898
3.17757
-3.17757
-5.1888
5.1888
-0.559592
0.559592
-0.554756
4.30571
3.1962
3.1962
-2.60187
2.60187
-4.84419
4.84419
6.21853
-6.21853
9.50409
-9.50409
-3.2308
-3.38362
1.3653
-8.11133
-4.78441
-4.78441
-8.44039
8.44039
-2.81396
2.81247
2.98338
-2.98338
-1.73489
1.73489
-4.43651
-0.00923512
-4.43651
4.45217
-0.00642513
4.45217
-1.64872
0.13494
-1.64872
4.09491
-4.09491
1.32985
0.183931
1.32985
3.04703
-3.04703
-1.87688
3.75309
1.87407
-1.87255
6.17826
-1.8784
3.75315
-4.94481
4.94481
-4.91384
0.0452432
-4.91384
4.85435
0.014247
4.85435
-5.2844
5.2844
-4.90176
-0.0662206
-4.90176
5.04001
-0.0720275
5.04001
3.08353
-3.08353
-2.9006
0.0246166
-2.9006
2.8323
0.043692
2.8323
0.353542
5.27289
-5.97997
8.79244
-5.27289
0.0263237
5.20858
0.0379822
5.20858
-5.10541
0.0384796
-5.10541
5.00852
0.0584103
5.00852
4.76958
-0.0809882
4.76958
-4.80997
0.121382
-4.80997
-3.34519
-3.29641
-5.05793
0.0891417
-5.05793
-1.96932
0.0309748
-1.96932
1.89706
0.0412807
1.89706
-3.65138
3.65138
-4.52327
-0.175709
-4.52327
3.1258
0.0517754
3.1258
1.86808
1.88288
5.61903
-5.61903
2.44146
-5.17741
-0.0113932
-5.17741
-5.21329
-4.29079
5.21329
-0.0244909
-0.87474
0.315148
-0.87474
3.16142
0.034774
3.16142
2.73616
0.0961372
-2.73616
0.13429
3.46511
-3.46511
1.97509
0.626779
1.97509
-5.57465
5.57465
4.94569
0.0628348
-4.94569
0.1015
6.15726
0.0612687
6.15726
-6.19962
-0.0189102
-6.19962
3.37327
-6.75689
-3.37711
4.88273
0.086061
-4.88273
0.0983247
3.00264
-0.0192634
3.00264
-2.93032
2.93032
-2.979
-0.00437719
-2.979
-2.12741
0.392521
-2.12741
1.42007
0.31482
1.42007
-4.37654
-0.0599697
-4.37654
-4.40491
-0.118355
4.40491
0.0472619
0.7379
-0.7379
-1.77997
0.131253
-1.77997
-4.23171
-0.144831
4.23171
-0.136806
-4.00818
-0.0867241
-4.00818
-3.00319
0.0241925
3.00319
0.0438392
3.11106
0.0503649
-3.11106
0.0640279
-1.87105
3.75392
-1.87991
3.75398
-4.73599
-0.208822
-4.73599
5.06294
-0.118124
5.06294
4.89528
-0.196303
-4.89528
-0.0185597
4.85823
-0.00388295
4.85823
-5.23869
-0.0457076
-5.23869
5.27548
0.00891323
5.27548
4.8553
0.00293305
-4.8553
-0.0464596
5.10224
-0.0622326
5.10224
3.1308
-0.0472703
3.1308
-3.05104
-0.0324966
-3.05104
2.93772
-2.93772
2.92174
0.0159818
-2.92174
0.0211378
-11.133
11.1141
-0.0354694
-11.0975
5.17311
5.17311
4.16506
0.604515
4.16506
-5.01724
0.207263
-5.01724
3.35012
-6.72724
3.31691
-6.6621
3.31707
-11.4284
3.35383
-6.65023
5.19134
-5.19134
5.13509
0.0562518
-5.13509
0.0771558
-2.0023
0.0329789
-2.0023
-3.1763
-0.47508
-3.1763
4.09683
-0.445442
4.09683
-3.00854
3.00854
-3.07122
0.0626849
3.07122
0.0545755
5.15029
-0.0480532
-5.15029
-0.0271187
1.10078
0.229067
-1.10078
0.226043
3.66255
-0.197444
3.66255
-3.28422
-0.180887
-3.28422
-2.01492
0.0126241
2.01492
-0.0398332
-5.82055
0.245894
-5.82055
-11.1906
0.093087
-11.1526
-6.10653
-6.10653
2.33386
11.1263
-3.02518
-0.0258572
3.02518
-0.0225391
2.94952
0.0590111
-2.94952
0.019202
-2.93714
-0.000586835
2.93714
-0.00681544
-2.50676
0.379349
-2.50676
-0.798698
0.798698
-1.13202
0.333327
1.13202
0.288048
1.16137
-0.423473
1.16137
1.85327
0.0437958
-1.85327
0.073295
-3.92145
-0.0867368
-3.92145
5.12303
-0.0600984
5.12303
-3.18972
-0.0945051
3.18972
-0.0589134
-0.0334857
11.1476
-5.13963
0.0342136
5.13963
-11.2088
11.243
-3.19379
0.687029
3.19379
0.971273
5.30087
0.273781
-5.30087
0.283634
5.23415
0.0413312
-5.23415
0.0428113
-2.76711
-0.409198
-2.76711
-4.44914
-0.286845
4.44914
-0.352318
-11.4768
-0.199876
11.6767
-11.4184
6.02042
0.13684
-6.02042
11.3799
-0.555287
-0.182614
0.555287
0.243411
1.68993
-0.52856
1.68993
3.82747
-0.164923
-3.82747
-0.0939709
-5.16683
-0.0718547
5.16683
-0.0438011
-2.20957
-0.557534
2.20957
-0.51964
-4.27023
4.305
1.90803
-3.36616
-3.39073
-7.65695
1.85247
1.90145
4.29393
-7.04054
-4.38785
-6.94222
7.28157
-6.99793
-9.32151
9.24053
7.43248
-7.5192
-5.77262
5.8272
6.40827
-6.36443
1.88023
1.87286
10.0441
-9.99881
-11.0874
10.8786
10.152
-10.2182
10.8169
-10.8626
-12.4324
12.4737
-5.74103
5.76565
-6.60591
6.57342
-6.78207
6.72316
-3.31363
-3.34847
9.07719
-8.98805
11.7659
-11.7773
-8.91394
8.73824
3.38353
0.921473
3.43389
-1.88479
3.76502
-1.86836
3.77639
3.37149
-6.68512
3.35575
-6.74648
6.06443
5.70151
-6.03994
-1.61701
-5.86968
5.85042
-5.86
5.85318
8.72456
-8.73379
-1.88509
3.75795
-1.86889
3.77034
-3.41687
-2.35575
3.3651
0.928835
5.57591
3.50128
-5.66197
-1.28024
-7.61523
7.45031
-7.88502
7.70413
-0.469274
5.832
-5.36273
4.37492
-1.54731
7.37932
5.73425
5.94151
5.86998
-5.5962
1.12795
-6.49068
-6.38918
-2.69753
2.82878
2.64647
-2.46254
5.86888
1.5636
5.73207
-5.42541
-2.09379
-5.51214
3.80167
2.02552
3.86436
4.01057
2.3977
4.03476
3.0377
-3.03289
-0.00481568
-3.06849
6.10619
0.725063
-5.42424
-4.4954
6.6843
3.35975
6.69855
-6.45354
-3.54527
-6.4721
-6.75099
-4.3364
-7.03783
6.94695
3.93162
6.82882
-8.08383
8.04003
6.78954
3.36245
6.71751
-6.71259
-3.50562
-6.75905
10.5356
-2.68955
-7.84604
-6.9847
-5.44765
6.97579
3.84108
7.5658
4.90789
7.60861
3.5805
6.9551
-7.42157
1.97392
-3.8349
-1.90613
-3.81376
3.72824
2.03741
3.77193
-4.13262
-2.4733
-4.15848
-4.19998
-2.58209
4.24725
2.32616
-4.32427
-3.56075
4.41877
2.30439
3.0205
-7.40835
3.62973
-6.9782
-6.32852
-2.65953
-6.25136
4.10893
2.61743
-6.72636
-2.57619
10.9397
-5.23817
9.32267
-7.32224
-4.45509
-7.34936
-5.96569
-2.94825
-6.08405
-6.78568
6.37648
-6.54235
6.0969
13.5899
-4.93599
-8.65388
-3.95556
-2.40887
3.89153
-0.45764
-3.72151
3.7167
0.0435058
3.8199
4.74137
4.28373
-3.86795
-1.99205
-3.84875
3.86125
1.99193
3.86067
6.23369
2.49086
6.22727
-6.29002
-2.44377
-6.34999
8.92545
-8.53293
2.93262
-2.91999
5.13828
2.56585
-4.94084
-2.67439
5.98088
-3.02324
-2.95765
-12.2405
10.6616
1.5789
-4.86122
-0.486301
0.0732912
-5.53253
-3.78899
5.41115
0.530368
11.192
7.40302
-5.51496
5.76086
6.16169
6.22452
-0.164657
5.7755
-5.08847
5.14564
-2.23488
-2.91076
5.22577
-5.3706
-1.12422
-5.29691
4.17269
0.36147
1.90929
-1.59414
-2.15579
-0.54174
-2.0825
1.60144
1.04503
1.83051
1.01296
1.81582
-2.8872
0.511772
2.37542
-1.87424
-1.95076
-3.61654
-0.864667
4.48121
5.42086
2.02945
-5.32689
-0.185255
2.80035
-2.75907
-0.881457
-2.73508
1.91389
-2.79535
-3.37311
-1.84523
5.21834
-3.36259
-0.486162
3.30358
0.560781
-3.74152
-2.12816
3.7459
0.288861
-3.09911
6.18315
-3.08404
-5.09116
2.52768
3.57851
4.55321
-4.85098
2.47056
2.38043
-1.27247
5.83828
0.860269
5.8344
-8.6588
5.11352
6.66975
2.06848
-6.47345
0.00135057
-8.65745
10.1266
-8.14721
-1.97938
5.7498
4.37679
5.98296
7.6069
-4.96006
10.943
0.316301
-8.46351
8.34115
-6.27266
4.05982
-10.3325
-11.6667
3.20322
-7.31748
8.69225
-1.37477
-2.3677
-5.71613
9.68518
-1.0526
-8.63258
5.77623
-5.4165
-5.34003
10.7565
-8.10604
8.84564
-2.67485
-6.17079
-6.77601
-4.08657
6.84786
1.19217
-9.94903
11.923
-2.99393
5.9228
0.794715
5.86057
3.98094
-6.02914
2.0482
4.1251
-6.79996
2.77058
-8.79972
-4.88927
9.54809
-4.65881
-7.54881
-6.75761
-0.791194
2.03427
9.88868
-6.94216
5.34411
1.59805
3.32831
0.532355
-3.34429
-0.469467
0.342696
4.441
-4.78369
4.11462
4.21076
3.3384
1.1026
3.82084
2.02958
-3.7983
-0.360171
-4.02007
1.43799
-1.69391
-3.48504
4.92302
-3.92311
0.438076
-2.63375
-3.45827
6.09202
-4.53988
3.06681
3.11634
5.05874
-4.81569
1.35742
-2.3876
-2.42808
2.56569
-4.2596
1.846
3.07702
4.15038
0.589633
4.84847
4.69962
-7.4659
0.487697
8.2009
-6.92066
1.69429
5.91432
-7.0384
0.280787
-5.97058
1.10423
-6.3424
-5.62213
3.5653
-6.51355
-6.76718
5.47812
0.749145
-5.52538
-0.558663
-4.63518
-2.1505
-5.19272
-2.14988
-4.39246
-7.10994
-1.50894
-5.601
4.86754
-4.70324
-2.33459
5.05556
1.04134
-7.61093
7.42832
-7.18491
6.65635
0.0616477
3.65505
4.34538
1.93651
-2.38257
4.31908
-4.30952
6.80038
-8.64352
4.334
4.15328
-6.59706
-4.49024
4.93286
3.99259
5.24768
9.73544
-10.3665
0.631071
-11.5773
12.7199
-1.14261
-17.6433
6.06606
-7.90791
2.6551
0.277516
2.68808
0.649952
2.32717
-2.97712
-2.27004
-2.30987
-2.2102
-3.24747
5.45767
1.14487
-3.2273
2.08244
-3.42499
4.56985
0.0123867
-3.23969
5.09757
-2.7704
5.37508
-3.4126
1.96248
3.21048
5.44989
-2.2394
4.16877
-1.60293
1.75309
-3.99249
-1.49438
-2.9517
4.98912
-3.14032
3.5784
-0.20542
3.78382
-3.97443
0.951193
-0.636029
3.57473
3.70902
4.13591
-3.03331
2.81423
-4.41716
-1.17826
-3.82753
-0.750503
-0.137903
-4.12099
4.25889
6.3687
-6.5066
-5.24488
9.41159
-4.16671
7.62296
-5.41909
-2.20388
-4.20796
-4.32497
3.82861
1.94689
9.56985
0.166518
-5.5856
-4.92195
-3.95068
3.16659
1.97905
-2.14489
3.72378
2.0716
-0.162307
0.634995
1.19551
1.88794
-1.25295
0.172586
1.71536
-1.42156
2.0884
0.711945
-2.1322
0.049702
-1.38986
3.30376
0.985563
-2.03059
0.777639
1.08038
-3.31526
4.70053
-2.36157
-2.33896
5.78091
1.15876
-3.52033
4.13815
-3.77668
2.33451
-3.19918
-1.18582
-4.96249
-3.39889
-2.43808
4.52052
-3.01959
5.04904
1.14741
-4.86379
6.01119
-3.41061
1.56537
-3.08172
3.79366
-1.15925
-1.92247
2.60753
2.61082
-2.80494
0.0698544
-0.197411
2.17383
-2.37124
-0.621521
-2.49576
-4.5788
4.86766
-2.13799
4.60854
2.1811
-1.9171
6.52564
1.84995
-3.76705
-3.2412
-3.72736
-1.38663
3.16658
-0.968896
-5.79016
-7.13968
5.78722
0.0471771
-8.79393
10.2616
-1.46769
-5.43418
0.320658
5.42914
-7.60018
0.800221
-4.8296
5.43202
6.29229
6.33946
-8.83205
0.19946
-4.90043
1.63678
-6.53721
6.01357
-3.93744
7.14066
-8.04692
5.71233
-7.00558
5.16128
-1.37594
5.62782
-3.57962
2.21822
-6.30479
-5.11263
6.99256
-3.63011
7.78727
-4.13248
11.9198
-7.12641
6.96227
4.95749
-1.41602
-5.93334
-6.84144
5.42542
0.12083
5.9814
4.8928
-2.86322
4.53263
2.20027
-4.58787
-2.05933
-6.43422
1.84634
-3.31788
-1.86791
3.71426
3.19082
3.72318
1.28617
-3.25371
6.68794
-7.47913
-2.02912
-3.593
6.75027
-1.32485
4.04723
-7.64023
-2.29518
7.90889
-3.1445
-4.76438
-2.9729
-3.79428
2.8262
-6.62048
3.68735
-4.24601
2.24649
-10.1544
-5.36444
-5.12103
-2.17333
-5.01158
-8.05932
5.88599
-1.99326
5.43506
-9.43446
6.28995
-3.28543
9.17142
-4.58485
-0.607862
5.10449
1.55186
10.7233
0.255059
-4.7453
-1.77784
3.96241
-2.18457
1.38875
-3.86593
0.0964808
2.36379
3.41712
-6.53648
-0.0605778
-4.80588
-3.90709
7.89968
5.5045
11.8732
1.50669
9.10257
-1.20289
10.6093
4.04479
4.33284
-4.39144
5.02251
-0.132549
4.20145
-0.827264
2.78975
1.86082
1.89179
0.867276
2.25254
1.45648
3.20373
0.226612
-2.08326
4.67558
-8.62626
-0.910021
-8.02175
1.21878
5.83595
-4.61717
3.11065
-1.1316
0.926079
0.237386
-1.78806
1.55067
-2.67337
-1.95036
-0.235004
-1.47023
2.24787
1.83352
-2.01287
-0.660503
0.273334
-3.67223
2.92584
-2.85599
-0.245171
5.76602
-2.59118
0.219935
-1.0258
-2.27582
-2.81756
2.76786
6.20362
0.32202
3.11958
5.18968
3.06152
0.198295
4.8096
-6.18436
-3.99013
-5.9849
0.0286689
5.45781
2.06877
7.81991
7.02625
5.7014
-1.93883
-9.41796
8.47902
-3.45651
7.33641
-2.57202
-4.04846
3.74429
3.05609
-4.49344
0.247425
-3.80103
-7.25754
-1.6911
7.98106
-9.03218
8.42432
6.27382
-0.672819
-4.46652
-0.654509
4.13319
0.199641
10.8089
-1.2107
-6.9287
8.1394
-4.62525
3.71523
0.882924
2.84086
2.43359
1.30199
-5.62671
-10.2439
-1.78231
-1.53295
-4.12127
0.359932
-2.19346
6.25236
-2.53713
4.04848
5.60227
6.52835
-2.30575
-4.20085
6.47246
-2.42398
4.10437
)
;

boundaryField
{
    wall-4
    {
        type            calculated;
        value           uniform 0;
    }
    velocity-inlet-5
    {
        type            calculated;
        value           uniform -3.75095;
    }
    velocity-inlet-6
    {
        type            calculated;
        value           uniform -5.62643;
    }
    pressure-outlet-7
    {
        type            calculated;
        value           nonuniform List<scalar> 8(6.27328 6.14971 6.61443 6.74603 6.64159 6.75038 6.66704 6.6709);
    }
    wall-8
    {
        type            calculated;
        value           uniform 0;
    }
    frontAndBackPlanes
    {
        type            empty;
    }
}


// ************************************************************************* //
