/*--------------------------------*- C++ -*----------------------------------*\
| =========                 |                                                 |
| \\      /  F ield         | OpenFOAM: The Open Source CFD Toolbox           |
|  \\    /   O peration     | Version:  2412                                  |
|   \\  /    A nd           | Website:  www.openfoam.com                      |
|    \\/     M anipulation  |                                                 |
\*---------------------------------------------------------------------------*/
FoamFile
{
    version     2.0;
    format      ascii;
    arch        "LSB;label=32;scalar=64";
    class       volVectorField;
    location    "11";
    object      U;
}
// * * * * * * * * * * * * * * * * * * * * * * * * * * * * * * * * * * * * * //

dimensions      [0 1 -1 0 0 0 0];

internalField   nonuniform List<vector> 
918
(
(0.985185 -0.000699128 0)
(0.00500831 2.96625 0)
(-0.00517032 1.66496 0)
(0.979672 0.00224099 0)
(-5.66924e-05 1.63767 1.00418e-21)
(-0.0070308 2.9488 -1.90992e-18)
(0.854633 1.16163 7.36701e-19)
(0.514809 0.254099 -8.92633e-21)
(0.999878 -0.000363751 0)
(0.0468235 1.42953 0)
(-0.00949658 1.46335 0)
(0.85367 -0.00381879 0)
(0.0110223 2.93045 0)
(0.00129668 2.79399 0)
(-0.0213877 3.17489 1.08722e-18)
(-0.00156918 1.5534 -1.73467e-20)
(0.614491 0.114297 5.5098e-19)
(0.225615 1.48856 5.25657e-19)
(0.966684 0.00778876 0)
(0.00278883 1.54376 0)
(0.188154 0.292166 -4.97685e-19)
(1.00143 -0.00510434 0)
(0.999898 -0.0101824 0)
(0.975377 -0.00635078 0)
(0.769712 -0.0269271 0)
(0.0203326 2.62511 0)
(-0.0152473 2.91022 6.63823e-19)
(-0.00874892 1.688 0)
(-0.010209 1.76627 0)
(-0.00826737 1.68608 0)
(0.00505473 1.79856 0)
(0.00289359 1.65204 -7.95129e-22)
(-8.15758e-05 1.56661 0)
(-0.0206323 2.98758 -6.69578e-23)
(-0.0167032 3.0053 1.48461e-18)
(0.00209551 3.0002 0)
(0.892253 -0.00213377 0)
(0.382093 0.922672 5.35675e-21)
(0.839327 1.18983 -1.05737e-18)
(0.978976 1.03905 9.8167e-19)
(0.694083 1.28271 -1.68594e-19)
(0.704966 1.26585 9.51723e-19)
(0.553719 0.315773 8.7092e-21)
(0.546205 0.220087 0)
(1.19648 0.571047 0)
(0.504897 0.334568 4.03637e-20)
(0.471284 0.245531 -4.18828e-20)
(0.913083 -0.00677802 0)
(1.00013 0.000152731 0)
(0.999954 0.000224798 0)
(1.00475 -0.00803954 0)
(1.0005 -0.000468712 0)
(1.00014 2.34228e-05 0)
(0.0336924 1.58122 -5.96089e-19)
(0.0223168 1.5634 0)
(0.0666783 1.44879 0)
(0.0104659 1.57504 0)
(0.027769 1.41491 0)
(-0.000336008 1.60252 0)
(-0.0158685 1.57788 0)
(-0.00818138 1.44535 0)
(-0.01597 1.60785 0)
(-0.0112847 1.48715 0)
(0.921644 0.00173659 0)
(0.916983 0.00410354 0)
(0.862152 -0.00115871 0)
(0.912871 0.00846355 0)
(0.838571 0.00189272 0)
(0.014694 3.0004 6.99934e-19)
(0.0115064 3.00789 0)
(0.00613197 3.00281 0)
(0.0135433 2.9973 7.81442e-24)
(0.00798392 2.9585 -1.04027e-18)
(0.0145432 2.98219 0)
(0.0108446 2.90364 0)
(0.0255 2.92995 1.41524e-24)
(0.00384279 2.82455 0)
(0.0320748 2.91489 0)
(-0.00711114 2.74326 0)
(0.302355 3.56327 0)
(-0.132796 3.64567 0)
(0.134156 3.26345 1.01183e-18)
(-0.0101227 2.99878 0)
(0.00931044 1.77072 0)
(-0.00281985 1.65556 1.71131e-20)
(-0.00172506 1.56163 -2.77204e-20)
(0.674996 0.16352 -1.89066e-19)
(0.635406 0.0719296 -1.83152e-19)
(0.644223 0.197393 -5.68697e-19)
(0.601529 0.134181 -3.81705e-19)
(0.258781 1.2138 0)
(0.197321 1.50124 -5.64227e-19)
(0.37702 1.39957 9.46456e-19)
(0.987977 0.0116639 0)
(0.942426 0.0106434 0)
(1.00038 0.000647361 0)
(1.00257 0.00955584 0)
(1.00231 0.00890213 -1.02192e-18)
(0.991874 0.00927155 7.80332e-19)
(-0.00196392 1.64244 0)
(0.00119263 1.54687 0)
(-0.0114309 1.69849 0)
(-0.00681054 1.65787 0)
(0.00114379 1.55314 0)
(0.277946 0.302055 1.51699e-19)
(0.321026 0.272865 0)
(0.992899 -0.00822701 0)
(0.956009 -0.00522614 0)
(0.885529 0.0248325 0)
(0.850699 0.0250828 0)
(0.81028 -0.00270855 0)
(1.03525 0.000289417 0)
(0.806369 0.0273529 0)
(0.703935 -0.0169197 7.4315e-19)
(-0.0341238 2.86853 3.42198e-19)
(0.0447463 2.90681 0)
(0.0585929 2.88165 0)
(-0.00541607 2.69402 0)
(-0.013114 2.98539 6.11172e-19)
(-0.0186587 2.89575 0)
(-0.0153227 2.98818 -1.93108e-18)
(-0.0135823 2.92531 6.66212e-19)
(-0.00527347 1.8049 0)
(-0.00185121 1.7997 0)
(0.000300584 1.66017 -3.80318e-22)
(0.000811665 1.65029 0)
(-0.000298127 1.55388 0)
(0.947762 0.00225922 0)
(0.893992 0.00346411 0)
(0.870346 -0.00429227 0)
(0.945547 -0.00229335 0)
(0.888557 -0.00247028 0)
(0.502017 1.10454 -1.70119e-20)
(0.54691 1.15556 0)
(0.338281 0.863152 1.03627e-20)
(0.272832 0.740423 0)
(0.950685 1.07572 -2.84202e-19)
(1.07572 0.891277 5.88038e-19)
(0.346577 1.42495 0)
(0.533255 1.35895 0)
(0.558249 1.31665 0)
(0.0773631 0.0022108 -9.75737e-20)
(0.584265 0.291182 0)
(0.576421 0.205148 1.10807e-19)
(1.04562 0.939221 0)
(1.11616 0.786212 0)
(1.14189 0.735776 -5.09876e-19)
(1.17888 0.627194 0)
(1.23322 0.41656 6.24816e-20)
(0.948253 -0.00041747 0)
(0.952862 -0.00616984 0)
(0.89885 -0.00274596 0)
(0.985682 -0.00903773 0)
(0.971525 -0.00783279 0)
(0.937872 -0.00568208 0)
(1.0002 0.00230589 0)
(1.00085 0.00148757 0)
(0.999896 0.000775114 0)
(0.0215938 1.66053 3.2616e-19)
(0.0617198 1.54924 0)
(0.00420368 1.69223 2.45879e-19)
(0.0136448 1.58487 -4.42354e-19)
(0.0581721 1.52755 -4.39099e-19)
(0.0120412 1.56449 0)
(0.0957661 1.47389 0)
(0.00389552 1.57691 0)
(0.0216171 1.40905 0)
(-0.000854893 1.68221 -1.26669e-21)
(0.00801358 1.59919 0)
(-0.00674116 1.69039 -6.48189e-20)
(-0.0067824 1.59806 -6.05854e-21)
(0.00182467 1.57425 0)
(-0.0128988 1.57045 0)
(0.00553168 1.42274 0)
(-0.0153035 1.62718 0)
(-0.00879906 1.50691 0)
(0.983993 0.0130392 0)
(0.938454 0.00411422 0)
(0.968704 0.00632635 0)
(0.913777 0.00212539 0)
(0.87024 -0.00388688 0)
(0.936591 0.00407598 0)
(0.929033 0.00661732 0)
(0.866164 0.00365418 0)
(0.00609823 3.06485 -6.18353e-21)
(0.0164737 3.05797 0)
(0.0149282 2.96913 0)
(0.00873323 2.87614 0)
(0.913043 3.97149 0)
(1.22573 3.29415 1.00122e-18)
(0.0718135 3.09197 0)
(-0.02456 2.91591 0)
(-0.00263571 1.79458 0)
(0.00360221 1.77423 0)
(0.00433349 1.77734 0)
(0.00282475 1.78508 3.56332e-21)
(0.00705475 1.77245 0)
(0.00834414 1.77826 0)
(-0.0013679 1.57048 4.48604e-21)
(-0.00230882 1.67489 3.609e-20)
(-0.0027269 1.66667 2.83285e-20)
(-0.00242509 1.5649 0)
(0.696877 0.13008 2.77803e-19)
(0.664437 0.0539248 -2.69159e-19)
(0.225894 1.33211 0)
(0.310133 1.03258 -2.73523e-19)
(0.155612 1.44227 -8.13795e-19)
(0.186041 1.34961 8.13246e-19)
(0.893952 0.00942367 0)
(0.964061 0.0136323 0)
(0.975331 0.0140314 0)
(0.920793 0.0124138 0)
(-0.0120532 1.63844 0)
(-0.00479471 1.64421 0)
(-0.00331205 1.52847 0)
(0.458498 0.35088 3.7e-19)
(0.386188 0.33194 -4.56362e-19)
(0.394565 0.247783 0)
(1.15487 0.0846106 -4.42184e-21)
(1.14092 0.0381158 0)
(1.06751 0.0361345 0)
(0.983014 0.00205386 0)
(0.727688 0.0988179 0)
(0.757 0.0532067 -1.19268e-18)
(0.690663 0.0220796 4.56946e-19)
(0.0104886 2.98353 4.35594e-19)
(-0.0312794 2.86953 5.03311e-20)
(0.00397537 3.05026 -1.33297e-20)
(0.0199086 3.04352 4.79456e-19)
(-0.0150964 2.9966 2.21207e-20)
(-0.0129388 2.94939 -8.96152e-23)
(-0.0172536 3.012 -4.19023e-19)
(0.014677 3.02421 3.02583e-19)
(0.0072018 3.0366 -4.73127e-19)
(0.964982 0.00562741 0)
(0.958273 0.00583556 0)
(0.902152 0.00516179 0)
(0.95028 0.011894 0)
(0.938186 0.00521048 0)
(0.874129 0.00625345 0)
(0.939038 -0.00269357 0)
(0.93118 -0.00284945 0)
(0.872627 -0.00856644 0)
(0.700036 1.37997 2.87668e-19)
(0.733595 1.49159 0)
(0.174345 0.25221 5.73118e-21)
(0.097173 0.518875 1.70018e-19)
(0.206386 0.675241 -1.3572e-19)
(0.208676 0.560646 2.81412e-19)
(0.396597 0.624785 6.68871e-19)
(0.140418 0.146183 2.6822e-19)
(0.632676 0.226863 -3.91883e-19)
(0.611666 0.260599 1.01397e-19)
(0.589398 0.169116 2.12771e-19)
(1.22232 0.468119 3.01877e-19)
(1.24227 0.263084 3.17682e-19)
(-0.00635236 1.6925 2.06376e-19)
(0.00366519 1.58403 0)
(1.02233 0.0219261 0)
(0.998287 0.0117913 0)
(0.956282 -0.00326616 0)
(0.0108566 3.07457 0)
(0.0201931 2.94387 8.27054e-19)
(0.0167266 2.95623 0)
(0.00614013 2.85035 -8.20297e-19)
(0.00591644 3.09201 1.96494e-19)
(0.00721453 3.08254 0)
(0.765376 1.79765 -2.27999e-19)
(1.23074 2.48609 6.1812e-19)
(0.747899 1.94124 -1.45147e-18)
(0.02176 2.98723 -3.17504e-19)
(0.0382831 3.01286 0)
(-0.0304 2.88558 0)
(-0.00873768 1.67427 -8.06415e-21)
(-0.00343064 1.67661 -4.1467e-21)
(-0.00307393 1.58207 -6.15855e-21)
(0.279246 1.22463 8.47369e-19)
(0.329918 0.882365 -5.69382e-19)
(0.0380138 1.62026 5.48045e-19)
(0.0796388 1.55045 -6.63873e-19)
(0.105101 1.46214 7.76853e-20)
(0.00620063 3.11816 -1.03877e-18)
(0.0141436 3.11871 1.12606e-18)
(-0.00846307 2.98073 5.33908e-19)
(-0.00266268 2.9781 -4.73529e-19)
(-0.0216027 2.8826 -5.43771e-19)
(0.00874803 3.09858 -1.44017e-18)
(0.00195076 3.10608 1.43275e-18)
(0.317999 0.482179 0)
(0.106241 0.470205 1.02002e-19)
(0.0845021 0.00627108 -3.02845e-20)
(0.437693 0.79406 7.88385e-19)
(0.263111 0.364462 -1.1979e-18)
(1.23644 0.172093 -5.8768e-20)
(1.23974 0.313992 0)
(1.22516 0.121732 1.25563e-19)
(0.00224337 1.68109 -1.66588e-21)
(-0.00503012 1.68001 0)
(0.00422311 1.58231 0)
(0.310469 1.07383 -3.03287e-19)
(0.346651 0.954628 -6.28278e-19)
(0.304834 0.660667 1.09237e-18)
(1.00535 -0.00900724 0)
(1.00715 -0.00735513 1.87397e-19)
(-0.00449258 1.80086 0)
(-0.00929271 1.80639 0)
(1.0026 0.00353414 1.72848e-21)
(1.00194 0.00863897 3.83183e-19)
(0.00351655 1.78688 -4.57628e-21)
(0.00257832 1.78755 0)
(0.0428665 3.18859 1.13494e-19)
(0.395097 3.51159 0)
(1.10285 0.639631 6.86623e-20)
(1.01351 0.0131324 -2.73374e-21)
(1.01029 -0.0204479 0)
(1.00155 0.000302847 2.70011e-22)
(-0.0103761 1.74107 0)
(0.038677 1.84033 0)
(-0.0217725 1.78612 0)
(0.0126783 1.80406 9.12056e-20)
(-0.00814061 1.80249 4.20536e-20)
(1.00235 0.0115359 2.29457e-21)
(1.04454 0.0148515 0)
(1.07473 0.0253895 0)
(-0.00259787 1.7791 0)
(-0.00601948 1.79463 0)
(-0.00609627 1.79642 0)
(0.0342171 1.52936 -4.10035e-19)
(1.01189 -0.00944041 0)
(1.00991 -0.0168004 0)
(1.00375 0.0004676 2.38177e-19)
(1.00535 -0.00508355 -2.85776e-19)
(1.00147 -0.00220325 0)
(-0.00764417 1.78505 0)
(-0.00216416 1.79711 0)
(-0.00382141 1.79201 0)
(-0.00526598 1.7981 0)
(-0.00537921 1.79516 0)
(-0.00602452 1.79765 0)
(1.0248 0.0113492 0)
(1.02212 -0.000492519 -9.06606e-22)
(0.76138 1.21993 5.37106e-19)
(1.00199 0.00107609 -2.3836e-19)
(1.0039 0.00522871 2.8231e-19)
(1.00126 0.00203786 0)
(1.01097 0.0107112 2.32431e-19)
(1.00753 0.0114508 -2.87271e-19)
(1.00369 0.0149044 0)
(-0.00307613 1.79469 0)
(0.00208731 1.78933 1.52464e-20)
(0.00182204 1.78981 -1.1101e-20)
(1.17417 0.259042 -7.88894e-20)
(1.11062 0.0813665 0)
(0.0635879 3.07921 -5.39272e-19)
(0.0716552 2.84975 -4.37434e-20)
(0.154422 3.20307 8.0497e-19)
(0.145504 3.23137 -2.91223e-21)
(0.146574 3.256 0)
(0.0231496 3.13935 1.16518e-19)
(0.0849275 3.16498 5.26986e-19)
(0.0778627 3.19349 -2.25477e-19)
(0.0284915 3.12747 0)
(0.705394 0.34601 0)
(0.607893 0.399263 0)
(1.08014 0.672213 -2.61526e-19)
(1.06806 0.811717 -9.75094e-20)
(1.12686 0.55196 0)
(1.16512 0.507834 0)
(1.01512 0.0128161 -4.38674e-19)
(1.01085 0.0189 -1.80671e-21)
(1.00886 -0.0181186 0)
(1.00841 -0.0136528 0)
(1.00689 0.000797495 0)
(1.01234 0.00365497 0)
(1.00483 0.00258611 0)
(1.01361 0.00769276 0)
(1.00649 0.00536296 0)
(1.00531 0.00382641 0)
(-0.00875511 1.74895 0)
(-0.00576527 1.76336 0)
(-0.0275279 1.73233 0)
(-0.026736 1.70505 0)
(0.0328933 1.84724 0)
(0.065187 1.84522 -3.4804e-19)
(0.011525 1.84552 0)
(0.00406125 1.83171 1.61392e-19)
(-0.00608145 1.81577 -1.71974e-19)
(-0.0234699 1.78713 0)
(-0.0217654 1.78781 0)
(-0.0193868 1.78703 0)
(-0.0115263 1.78493 0)
(-0.00591897 1.80243 -4.83949e-20)
(-0.00824589 1.80295 5.82252e-20)
(0.0033191 1.8093 7.70777e-20)
(-0.00431695 1.80407 0)
(-0.00703415 1.80512 -9.62567e-20)
(-0.00590511 1.80274 -5.50987e-20)
(-0.00467137 1.80301 4.01454e-20)
(-0.00959065 1.79992 -7.96198e-20)
(-0.00666525 1.80507 -9.4483e-20)
(1.00947 0.0165677 4.17312e-19)
(1.00831 0.00408056 2.16242e-21)
(1.00267 0.0198511 -4.39395e-19)
(0.987956 0.016633 5.60454e-19)
(1.03805 0.0168554 0)
(1.04025 0.00904032 0)
(1.05996 0.0333855 0)
(1.04476 0.0159629 0)
(1.05987 0.0118986 0)
(1.09794 0.0642078 0)
(1.07519 0.0449079 0)
(1.09678 0.0308575 0)
(0.00294895 1.77826 -1.59668e-21)
(-0.00367845 1.77329 0)
(3.71216e-05 1.77428 0)
(-0.00656795 1.797 1.59376e-20)
(-0.00576111 1.79623 -7.89712e-22)
(-0.0116534 1.77793 1.59548e-20)
(-0.0081 1.78502 -1.63196e-20)
(-0.00831499 1.79437 0)
(-0.00696593 1.79545 0)
(-0.0075306 1.79581 0)
(-0.00875342 1.79572 0)
(-0.00892963 1.79709 0)
(0.123314 1.43373 8.09069e-19)
(0.272079 1.37903 3.29338e-19)
(0.413478 1.8639 -2.03633e-19)
(0.255369 1.79477 5.40132e-19)
(-0.0707744 2.28296 9.92191e-20)
(1.01185 -0.0225643 0)
(1.01445 -0.0184168 0)
(1.00974 -0.0260809 0)
(1.00944 -0.00234056 0)
(1.00629 -0.00336313 0)
(1.00567 -0.00479176 0)
(1.00926 -0.00659018 0)
(1.01093 -0.012795 0)
(1.0239 0.000809654 4.14471e-19)
(1.01982 0.0041232 -5.28169e-19)
(1.02269 0.0011793 -4.05748e-19)
(1.01907 0.00284526 4.98803e-19)
(0.756442 1.23028 0)
(0.623044 1.28051 6.5345e-19)
(0.85094 1.16246 3.85603e-19)
(0.894184 1.10773 -5.13335e-19)
(1.14349 2.56412 -3.86525e-19)
(0.8203 0.11955 2.8227e-19)
(1.11184 0.0897798 0)
(1.15715 0.174072 7.06264e-20)
(1.14518 0.152016 3.25481e-21)
(0.963173 0.136911 0)
(0.171951 2.97816 8.12186e-20)
(0.137024 2.87948 -6.77583e-19)
(0.0528725 2.33399 5.02255e-19)
(0.124618 0.164692 -2.04202e-19)
(0.336596 3.43779 -4.55176e-19)
(0.200039 3.33315 0)
(0.239461 3.38278 5.92798e-19)
(0.257541 3.05857 -6.22842e-19)
(0.35995 3.2157 0)
(0.00755472 3.12031 2.75828e-20)
(0.0195303 3.12937 -3.51851e-19)
(0.0168896 3.12502 5.17892e-19)
(0.0399763 3.14023 0)
(0.0387452 3.15294 0)
(1.18006 2.58294 0)
(0.508725 0.82751 -2.14403e-19)
(1.00972 0.980544 -2.12211e-19)
(0.961322 1.03284 0)
(0.834495 0.920279 6.16077e-20)
(1.03703 0.857229 3.31609e-20)
(0.40841 0.494121 -5.34666e-19)
(0.733731 0.339579 -2.39889e-20)
(0.740567 0.290325 2.18235e-19)
(0.606661 0.438719 1.74175e-20)
(0.564026 0.431041 -7.1584e-19)
(0.701517 0.372027 0)
(0.677678 0.429732 3.60234e-19)
(0.690083 0.429882 0)
(0.65145 0.412843 0)
(0.668138 0.360437 0)
(0.732081 0.60878 1.25227e-19)
(1.16014 0.264916 -5.66655e-20)
(1.15923 0.393796 0)
(1.18453 0.364732 0)
(0.787522 0.221969 3.23839e-19)
(0.785953 0.539099 -1.78957e-19)
(0.685891 0.506233 -2.90145e-19)
(0.87321 0.407019 -2.74016e-19)
(1.01826 0.00848816 2.84496e-19)
(1.01485 0.0176151 -2.93956e-19)
(1.01382 0.018404 0)
(1.01982 0.0124697 0)
(1.01034 0.000705935 -2.60707e-19)
(1.01045 0.00537603 2.60384e-19)
(1.027 0.00369815 0)
(1.02651 -0.000140184 0)
(1.01443 0.00724558 0)
(1.01802 0.0133919 0)
(1.02917 0.00224178 0)
(1.02339 0.0023209 0)
(-0.00948726 1.7732 0)
(-0.0064451 1.77515 0)
(-0.0545528 1.74985 6.41051e-20)
(0.00479018 1.58098 1.71798e-19)
(-0.0334786 1.69048 3.46677e-19)
(-0.018972 1.62703 -1.52159e-19)
(-0.088994 1.73696 0)
(-0.071724 1.85062 -1.00552e-19)
(-0.0466816 1.84537 0)
(-0.0261355 2.23738 -1.38178e-19)
(0.0846485 2.08244 5.07851e-19)
(-0.107474 1.87193 9.04694e-20)
(-0.122708 1.64872 1.03548e-19)
(-0.11493 1.71386 8.27419e-20)
(-0.179757 1.65586 2.15207e-19)
(-0.105844 1.94364 8.95422e-20)
(-0.11784 1.98196 -1.03924e-19)
(-0.0176349 1.8104 -4.48089e-20)
(-0.0131864 1.81741 0)
(-0.0160532 1.80453 1.88505e-19)
(-0.019041 1.80741 0)
(-0.00399228 1.82826 -1.7816e-19)
(-0.00664056 1.82346 0)
(-0.0122167 1.79385 -3.75908e-20)
(-0.00290497 1.79968 0)
(-0.00627348 1.79755 0)
(-0.0129689 1.79307 4.20709e-20)
(0.00626712 1.80833 9.23938e-22)
(-0.00059079 1.81619 2.08923e-19)
(0.0106089 1.81084 1.35505e-21)
(-0.0129272 1.79127 3.22941e-20)
(-0.0125638 1.79274 -1.96662e-20)
(-0.0205735 1.79093 0)
(-0.0171206 1.79283 0)
(-0.00645327 1.8009 1.07494e-19)
(-0.00218275 1.79579 6.81718e-20)
(-0.00270528 1.79786 -9.62563e-20)
(-0.0125953 1.80576 0)
(-0.0102225 1.78662 -5.98791e-20)
(-0.00947756 1.79529 2.58764e-20)
(-0.00988466 1.7949 -7.97942e-21)
(-0.0114459 1.79116 -4.01325e-20)
(-0.00649723 1.79898 -1.36743e-20)
(-0.00737958 1.80175 6.50002e-20)
(1.01844 0.00514696 -2.6996e-19)
(1.01351 0.00960573 2.81413e-19)
(1.01217 0.00472252 0)
(0.994008 0.0471777 3.9201e-19)
(0.986642 0.0333228 -4.70422e-19)
(0.962301 0.029566 5.40118e-19)
(0.995003 0.088713 -5.22988e-20)
(1.02585 0.00965616 0)
(1.03158 0.00988119 2.34368e-19)
(1.03199 0.00606761 -2.32528e-19)
(1.03319 0.0405676 -1.2933e-20)
(1.02939 0.0254897 1.1438e-19)
(1.01705 0.0432324 0)
(1.00939 0.0386276 -4.26014e-20)
(1.00975 0.0240773 0)
(1.01488 0.0172939 0)
(1.025 0.00588805 0)
(1.02086 0.00294945 0)
(1.01456 0.0240402 8.83931e-20)
(1.0205 0.0150681 -1.99824e-19)
(1.01653 0.0341549 -9.06359e-20)
(1.0151 0.0331323 -1.04069e-19)
(1.01323 0.0412788 1.82523e-19)
(1.04875 0.0405235 0)
(1.03763 0.0844943 0)
(-0.0105417 1.78635 -2.38217e-20)
(-0.00862329 1.77796 -1.92696e-21)
(-0.00871625 1.77981 0)
(-0.00387347 1.78973 2.37602e-20)
(-0.00393058 1.78528 3.33708e-21)
(-0.00211756 1.78838 -3.81523e-21)
(-0.0053818 1.80253 4.83054e-20)
(-0.00713974 1.79928 -2.93635e-21)
(-0.00662221 1.79824 1.55746e-20)
(-0.00496227 1.79968 -2.49011e-20)
(-0.00477017 1.80015 -2.67868e-21)
(-0.0118028 1.78474 6.11424e-22)
(-0.0132412 1.77923 2.44654e-20)
(-0.0150114 1.37108 -4.12911e-19)
(-0.15725 1.6838 -4.18149e-19)
(0.614174 1.24786 -6.29568e-19)
(0.407411 1.28564 -3.16154e-19)
(0.509778 1.32761 0)
(0.431262 1.93688 2.15629e-19)
(0.604497 1.77075 3.09003e-19)
(0.290086 1.79397 8.10581e-20)
(0.263399 1.99499 -5.77018e-19)
(0.279389 2.11312 5.69389e-19)
(0.392583 1.84019 0)
(0.344409 1.7846 -4.79627e-19)
(0.100162 1.83444 9.16613e-19)
(0.199519 1.81271 -6.60683e-20)
(0.132012 1.805 -1.22646e-18)
(0.904647 2.44661 -1.54904e-19)
(0.785266 2.21323 0)
(1.01229 -0.00778604 9.54824e-21)
(1.01287 -0.0157943 -7.82744e-21)
(1.01409 -0.0157551 -1.39545e-19)
(1.02738 -0.0154776 1.39691e-19)
(1.02608 -0.0102824 0)
(0.733762 1.11967 0)
(0.756052 1.09092 0)
(0.762017 1.0694 0)
(0.703131 1.12601 0)
(1.16163 2.59113 5.17446e-20)
(1.05149 2.31056 0)
(1.06456 2.27918 -2.57214e-21)
(0.76038 2.68482 0)
(1.01674 2.69281 2.09242e-19)
(1.04384 2.63128 0)
(0.831468 0.157562 0)
(0.802012 0.162195 8.15586e-20)
(0.884261 0.124185 4.14858e-19)
(0.848242 0.10881 -1.65226e-19)
(0.851639 0.0679578 -5.03168e-19)
(1.0101 0.207582 -2.50555e-19)
(0.927956 0.253633 -1.77444e-20)
(0.898993 0.248803 3.71375e-19)
(0.957994 0.174625 2.79081e-19)
(0.912171 0.159091 -5.20534e-19)
(0.891514 0.162152 6.71553e-20)
(0.931853 0.211922 -1.30869e-19)
(0.903472 0.179002 0)
(0.969496 0.157957 -2.50176e-19)
(0.998314 0.165307 0)
(0.990948 0.179785 0)
(1.04403 0.100604 7.98699e-20)
(1.01409 0.156382 -1.24792e-20)
(1.00593 0.215901 -1.26021e-19)
(1.04942 0.191843 0)
(1.00561 0.0257169 2.08705e-19)
(1.00642 0.0374807 2.50356e-19)
(1.0097 0.0309415 -2.06274e-19)
(1.00687 0.0424707 -1.68038e-19)
(0.998165 0.0513014 -2.78182e-19)
(0.959008 0.132506 0)
(0.989613 0.089957 0)
(0.962211 0.0409214 -1.95192e-19)
(0.921789 0.0518858 8.1993e-20)
(1.00013 0.0811673 2.38857e-19)
(1.00784 0.0992085 -2.46259e-19)
(1.01921 0.138988 2.25393e-19)
(1.00713 0.126132 0)
(1.01789 0.0800986 0)
(1.0077 0.0652317 -1.01479e-19)
(1.00884 0.0705264 -1.91612e-19)
(0.734981 1.22308 -3.7487e-20)
(0.669901 1.48112 4.57419e-20)
(1.10289 2.71799 8.28942e-22)
(1.18556 3.08173 -6.62533e-20)
(1.22537 2.6899 4.34211e-19)
(1.25168 2.68025 -2.96308e-19)
(1.18202 2.30859 -7.68056e-21)
(1.173 2.97066 1.36913e-19)
(1.20099 2.92289 -1.0181e-19)
(1.18127 3.23661 -2.56175e-19)
(1.34686 2.95098 3.54432e-19)
(1.33766 2.87334 0)
(0.491618 0.842528 -1.39134e-20)
(0.186339 1.30901 3.48059e-19)
(0.519867 0.544008 3.52089e-19)
(0.356446 0.333143 3.97435e-19)
(0.563753 0.451228 3.97954e-19)
(0.540827 0.503763 -6.30042e-19)
(0.540258 0.521796 5.16163e-19)
(0.520104 0.473878 -2.09857e-19)
(0.493777 0.42687 4.8502e-19)
(0.790045 0.254748 5.55346e-19)
(0.761488 0.285927 0)
(0.76552 0.25487 1.25556e-20)
(0.670818 0.51203 1.85166e-19)
(0.656243 0.480198 -6.82019e-19)
(0.595468 0.500205 2.01986e-20)
(0.618833 0.46712 0)
(0.615168 0.730934 1.45447e-19)
(0.783676 0.756788 4.75366e-20)
(0.722652 0.81412 -6.46393e-20)
(0.825087 0.79141 -1.47668e-20)
(0.883327 0.824341 1.57811e-20)
(0.891382 0.834321 -1.61342e-20)
(0.774897 0.627338 -2.12866e-19)
(0.857145 0.711189 1.37236e-20)
(0.931294 0.703322 0)
(0.914622 0.663274 -1.39245e-20)
(0.954918 0.28985 5.92623e-20)
(1.0651 0.261212 7.21185e-21)
(0.997684 0.234693 1.02633e-19)
(0.931815 0.329582 -1.36112e-19)
(0.980084 0.408096 0)
(1.04202 0.389518 0)
(0.849387 0.337929 2.29419e-21)
(0.851723 0.275056 0)
(0.851413 0.24714 1.94231e-19)
(0.875685 0.255725 -3.55854e-21)
(0.866018 0.410651 7.50424e-19)
(0.829294 0.473532 1.87862e-19)
(0.823488 0.436531 -2.42997e-19)
(0.756396 0.43313 -2.60922e-19)
(0.745359 0.432959 1.76965e-19)
(0.728707 0.423522 -1.73644e-19)
(1.02317 0.0104128 2.26925e-19)
(1.03185 0.000698686 0)
(1.033 -0.00362847 1.49445e-19)
(1.0216 0.00158633 -2.87882e-21)
(1.03402 0.00360403 1.60349e-19)
(1.03127 0.00489034 -3.47189e-19)
(1.02842 0.00166301 0)
(1.02417 0.00403868 -7.20655e-20)
(1.02968 0.00484226 1.81326e-19)
(1.02072 0.0110314 -9.11979e-20)
(1.02234 0.0103334 6.64452e-20)
(-0.00365386 1.78598 0)
(-0.00858158 1.79551 0)
(-0.00195292 1.78059 0)
(-0.000269589 1.78148 0)
(-0.0307316 1.78221 -8.20747e-21)
(-0.0303986 1.76525 3.92028e-23)
(-0.0516726 1.83195 -3.15014e-20)
(-0.0636305 1.77166 -5.43701e-20)
(-0.00675363 1.79907 -5.58185e-20)
(-0.0154232 1.79707 4.02773e-20)
(-0.0206491 1.78835 -1.11917e-20)
(-0.0144442 1.79963 -1.00961e-20)
(-0.00954045 1.79673 8.1512e-22)
(-0.00680093 1.7973 4.74949e-21)
(-0.0134837 1.81117 -2.09747e-19)
(-0.00395082 1.8253 0)
(-0.013832 1.81652 1.18433e-19)
(-0.0247736 1.82222 7.75743e-20)
(-0.0122184 1.94014 -8.3146e-20)
(0.0925269 1.89482 0)
(0.0820662 1.92578 -5.9691e-19)
(0.0947015 2.01063 4.06487e-19)
(0.00602806 1.88692 -3.08175e-19)
(-0.00508259 1.84396 1.29815e-19)
(0.00701893 1.85409 0)
(-0.00631283 1.80206 -1.36034e-19)
(-0.00347703 1.8034 -1.80659e-19)
(-0.00328078 1.80306 0)
(-0.00273288 1.8103 -5.36455e-21)
(-0.0123372 1.81066 7.10848e-20)
(-0.0213043 1.7901 5.20354e-21)
(-0.0225655 1.78979 -9.25586e-20)
(-0.0221168 1.7846 2.06155e-20)
(-0.0196178 1.78385 3.72477e-20)
(-0.0155213 1.79466 0)
(-0.0187549 1.78418 0)
(-0.0122477 1.7957 2.76101e-20)
(-0.0115886 1.78437 -8.98879e-21)
(-0.0178171 1.78424 0)
(-0.0169544 1.79496 2.21394e-20)
(-0.0127525 1.79644 -4.16339e-20)
(1.02164 0.0151034 0)
(1.02381 0.0135908 -2.14116e-20)
(1.02007 0.0147609 -1.59386e-19)
(1.02068 0.0193806 0)
(1.02124 0.0214051 0)
(1.02357 0.00741814 -4.85388e-21)
(1.02392 0.00786325 2.66661e-19)
(1.02082 0.0080521 3.24198e-19)
(1.02024 0.00660885 0)
(1.01796 0.0071217 0)
(1.01921 0.01309 1.62647e-19)
(1.0176 0.0112108 0)
(1.01871 0.0109831 0)
(-0.0121522 1.78714 0)
(-0.0131279 1.77779 2.34502e-21)
(-0.0135197 1.77952 1.34734e-20)
(-0.0115633 1.78397 0)
(-0.0128181 1.7802 1.83326e-20)
(-0.0108827 1.78368 -8.68896e-21)
(-0.00913156 1.784 0)
(0.17061 2.43001 0)
(-0.233676 1.78949 8.81725e-19)
(-0.108167 2.19539 0)
(0.0640163 1.37212 -6.64077e-19)
(0.288448 1.07703 0)
(0.126679 1.28847 5.78965e-19)
(1.08194 2.81801 4.36191e-21)
(0.942624 2.5489 2.06212e-19)
(0.834555 2.25806 -1.44305e-19)
(0.805197 2.31573 1.45151e-19)
(0.892512 2.66934 0)
(0.959442 2.60888 0)
(0.86365 2.41274 0)
(0.900133 2.27578 -4.49176e-19)
(0.381678 2.70074 1.45029e-20)
(0.714381 2.73533 1.41378e-20)
(0.737954 2.67706 -1.05092e-20)
(0.562857 2.03083 0)
(0.724535 2.18894 0)
(0.696996 1.98668 -2.87435e-19)
(0.557857 2.61438 0)
(0.651052 1.1062 0)
(0.457996 0.928127 -6.36003e-20)
(0.529231 0.9498 -5.04927e-21)
(0.545107 1.0837 0)
(0.470407 1.09935 9.83648e-20)
(0.770031 0.862394 1.79117e-20)
(0.797639 0.981988 0)
(0.764889 0.921059 -7.18288e-20)
(0.630367 1.06069 0)
(0.632474 0.932878 0)
(1.15893 2.72689 -1.3761e-21)
(1.13021 2.78801 9.40377e-21)
(1.01576 2.26223 -5.87898e-20)
(1.04693 2.29108 2.65576e-20)
(1.13672 2.72651 0)
(1.14283 2.69265 -3.96415e-20)
(1.06189 2.46008 -1.36915e-19)
(0.920153 2.1693 -2.54301e-20)
(0.835627 1.54325 0)
(0.810517 1.14663 3.28977e-20)
(0.75329 1.10271 0)
(0.847907 0.194744 0)
(0.817943 0.174488 0)
(0.776241 0.185732 0)
(0.851346 0.206384 -3.04884e-19)
(0.804277 0.21622 1.88182e-19)
(0.923048 0.0502558 -1.62743e-19)
(0.926339 0.0929416 0)
(0.896196 0.0998877 7.80935e-20)
(0.883079 0.0607267 3.09579e-19)
(0.886605 0.0553624 -1.90202e-19)
(1.13222 3.36455 -9.58164e-19)
(1.17767 3.28464 0)
(1.1386 3.39661 -1.93579e-18)
(0.629372 3.56293 1.64983e-18)
(0.843301 3.14238 4.18484e-19)
(0.485715 0.85465 1.94509e-19)
(0.377482 0.890096 0)
(0.341806 0.552882 -7.69054e-20)
(0.400021 0.678547 -3.46873e-19)
(0.512619 0.532943 -1.09624e-19)
(0.495018 0.554619 1.20835e-19)
(0.602003 0.52693 2.58591e-19)
(0.620467 0.549229 0)
(0.594901 0.611321 0)
(0.544442 0.54886 0)
(0.916909 0.576521 -4.93738e-20)
(0.832524 0.51558 -1.81601e-19)
(0.86499 0.559352 8.34981e-20)
(0.891338 0.492105 -1.34123e-19)
(1.00819 0.464553 0)
(1.00077 0.543121 -5.76078e-21)
(0.78765 0.380942 -3.91361e-19)
(0.797947 0.362158 5.87131e-19)
(0.770064 0.39208 3.06426e-19)
(0.775723 0.355597 -3.49199e-19)
(0.834202 0.29243 -2.42429e-19)
(0.808625 0.300262 3.05683e-19)
(1.03241 0.00573684 -1.62927e-19)
(1.03139 0.00743559 3.38055e-19)
(1.02488 0.0131653 2.14396e-19)
(1.02574 0.0142432 -2.52838e-19)
(1.02053 0.0159551 0)
(1.0246 0.010309 -4.20131e-19)
(-0.0145412 1.80659 2.63359e-20)
(-0.0191213 1.80512 0)
(-0.0212301 1.80306 2.21721e-19)
(-0.0200283 1.81879 -2.06417e-19)
(-0.0409143 1.8224 5.84723e-20)
(-0.0337059 1.81362 0)
(-0.012194 1.78712 0)
(-0.0148765 1.78328 -1.02246e-20)
(-0.0141842 1.78016 8.76551e-21)
(-0.0132514 1.7802 2.22331e-21)
(-0.0117599 1.78537 -1.84154e-20)
(-0.0112526 1.78707 -3.01856e-20)
(0.7871 1.63231 1.00013e-18)
(0.612864 1.75821 1.14401e-18)
(0.230232 1.39935 9.14444e-19)
(0.283629 1.95331 -5.95266e-20)
(0.732425 1.06273 0)
(0.473152 1.05258 6.54232e-19)
(0.513697 1.07217 -6.41729e-19)
(0.384402 0.960409 -8.95511e-19)
(0.710738 1.06577 0)
(0.765418 1.07143 0)
(0.254246 2.66248 -2.1974e-20)
(0.388776 2.46791 7.9552e-19)
(0.501995 2.54615 -5.17111e-19)
(0.326992 2.38908 -1.8155e-19)
(0.109958 2.49022 2.57801e-19)
(0.221043 2.27979 -6.92936e-19)
(0.918349 2.434 8.49087e-20)
(0.971331 2.38843 0)
(0.821938 2.15022 -2.03449e-19)
(1.07566 2.73909 0)
(1.09068 2.74931 0)
(0.589043 2.33632 2.24612e-19)
(1.00886 3.18576 4.6136e-19)
(0.879311 3.07178 -4.27527e-19)
(0.32808 0.984947 0)
(0.326058 0.834014 -1.27947e-19)
(0.438975 0.779329 -4.43179e-19)
(0.362818 2.11713 0)
(0.493339 2.8285 -2.9195e-19)
(0.413517 2.59895 0)
(0.647988 0.653836 -2.99481e-19)
(0.696517 0.672968 3.8208e-19)
(0.732141 0.623034 2.71117e-19)
(0.609606 0.629393 4.47829e-20)
(0.657929 0.587862 -1.84366e-19)
(0.96247 2.81737 -3.50587e-19)
(1.01068 2.86572 2.5263e-19)
(0.578126 2.18167 1.21174e-19)
(0.596477 1.80501 -1.22594e-19)
(0.648872 1.96 -2.59822e-21)
(0.953189 2.50704 -1.11962e-19)
(0.956738 2.4839 -5.95331e-20)
(0.595286 1.91214 -9.57639e-22)
(0.404989 1.43727 1.54775e-20)
)
;

boundaryField
{
    wall-4
    {
        type            noSlip;
    }
    velocity-inlet-5
    {
        type            fixedValue;
        value           uniform (1 0 0);
    }
    velocity-inlet-6
    {
        type            fixedValue;
        value           uniform (0 3 0);
    }
    pressure-outlet-7
    {
        type            zeroGradient;
    }
    wall-8
    {
        type            noSlip;
    }
    frontAndBackPlanes
    {
        type            empty;
    }
}


// ************************************************************************* //
