/*--------------------------------*- C++ -*----------------------------------*\
| =========                 |                                                 |
| \\      /  F ield         | OpenFOAM: The Open Source CFD Toolbox           |
|  \\    /   O peration     | Version:  2412                                  |
|   \\  /    A nd           | Website:  www.openfoam.com                      |
|    \\/     M anipulation  |                                                 |
\*---------------------------------------------------------------------------*/
FoamFile
{
    version     2.0;
    format      ascii;
    arch        "LSB;label=32;scalar=64";
    class       volScalarField;
    location    "16";
    object      p;
}
// * * * * * * * * * * * * * * * * * * * * * * * * * * * * * * * * * * * * * //

dimensions      [0 2 -2 0 0 0 0];

internalField   nonuniform List<scalar> 
918
(
0.229726
0.909858
0.00853177
0.229044
-0.000640479
0.876966
-0.840973
0.412819
0.209785
-0.295686
0.0174227
0.201092
0.737608
0.505314
-1.46691
0.0103223
0.367343
-0.73087
0.208498
0.00565442
0.484717
0.216499
0.219486
0.210031
0.267915
0.496677
0.61842
0.00303756
-0.00270735
-0.00216157
0.00345813
-0.00410348
0.00176556
0.760583
0.811699
0.834363
0.180249
0.011424
-0.690892
-0.769324
-0.757149
-0.902501
0.402212
0.405779
-0.486773
0.415334
0.430895
0.19725
0.209105
0.210075
0.211255
0.210112
0.211526
0.197825
-0.348244
-0.399682
-0.212539
-0.155275
0.0606903
0.0177299
0.00982779
0.0247881
0.0211898
0.13868
0.197544
0.196028
0.207032
0.215259
0.849407
0.821288
0.847425
0.76126
0.777692
0.715524
0.688016
0.524794
0.546367
0.491823
0.4796
-1.90902
-2.87902
-0.866174
-0.606602
0.00122177
0.0165546
0.0215359
0.351806
0.359452
0.360255
0.373178
0.786182
-0.718702
-0.839657
0.208463
0.207376
0.216247
0.216896
0.212909
0.212025
0.0121048
0.0171869
-0.0045468
0.00323058
0.00250527
0.464834
0.462015
0.210514
0.207422
0.223281
0.245357
0.235314
-0.0182618
0.281129
0.304598
0.298782
0.475893
0.475544
0.482215
0.591933
0.555504
0.655501
0.678741
0.00934757
0.00254148
0.00785599
0.00602975
0.00815588
0.175003
0.168774
0.191536
0.182729
0.184686
-0.0693737
-0.204998
0.0926356
0.110949
-0.591586
-0.66201
-0.786386
-0.789135
-0.911406
0.207208
0.387431
0.39202
-0.500294
-0.41725
-0.567142
-0.343093
-0.415938
0.188572
0.19506
0.190221
0.204614
0.199131
0.20107
0.213454
0.210495
0.212031
0.231743
0.324952
0.116706
0.13042
-0.601728
-0.462531
-0.563506
-0.0959202
-0.0691162
0.0644842
0.071438
0.0507528
0.0476993
-0.0350091
0.000973313
-0.0190183
0.0227106
0.0217856
0.132339
0.123485
0.14746
0.153899
0.189034
0.19017
0.193353
0.192599
0.638608
0.661061
0.668612
0.642212
-3.88702
-6.70535
-0.273629
-0.129468
0.00233464
0.00265221
0.00107799
0.00305212
0.00317516
0.0013898
0.0275941
0.0258733
0.0240098
0.0267789
0.336274
0.342072
0.736717
0.724538
0.702675
0.676601
0.196725
0.198806
0.204202
0.199978
0.0220707
0.0191124
0.0223846
0.429657
0.448443
0.448086
-0.0522921
-0.14118
0.0295031
0.0564832
0.323087
0.308374
0.325838
0.363918
0.402194
0.686149
0.70453
0.702771
0.711232
0.755184
0.771511
0.736955
0.158565
0.165983
0.162128
0.19616
0.192849
0.193845
0.189073
0.191022
0.188229
-0.359294
-0.747398
0.159109
0.168389
0.14701
0.149707
0.291623
0.378455
0.367906
0.377201
0.380711
-0.277733
-0.34532
0.111871
0.110342
0.0810201
0.111719
0.0955141
0.60991
0.570171
0.620172
0.593534
0.554889
0.580939
-0.701005
-2.22864
-1.33234
0.238418
0.0417671
0.134506
0.0439388
0.0280879
0.0357739
0.682163
0.759409
0.395477
0.572739
0.533075
0.4413
0.472033
0.529491
0.453987
0.489248
0.524778
0.503593
0.164142
0.158845
0.139556
0.46289
0.521801
-0.167159
-0.214755
-0.273326
0.0745015
0.0900693
0.0937145
0.726856
0.59011
0.681666
0.207435
0.208094
0.0122898
0.0227326
0.212203
0.212347
0.00645687
0.00693056
0.112976
-1.18124
-0.171686
0.200678
0.19098
0.207672
-0.365957
0.241053
0.0109424
0.0775205
0.0493891
0.199925
0.148751
0.114607
0.0064192
0.0164005
0.0118615
-0.547885
0.205106
0.203418
0.207291
0.208253
0.208983
0.00770254
0.0101282
0.00698023
0.00990476
0.0101393
0.0072558
0.174537
0.187954
-0.488776
0.207305
0.209506
0.209334
0.202682
0.208031
0.206035
0.0141988
0.00878924
0.00831571
-0.0666191
0.0483251
0.372284
0.48668
0.318772
0.0924961
-0.152465
0.268187
0.337441
0.233222
0.403261
0.370246
0.399731
-0.113036
-0.260201
-0.105557
-0.16174
0.198121
0.197039
0.189447
0.187754
0.202882
0.201072
0.205363
0.202466
0.205058
0.206362
-0.287835
-0.210825
-0.419754
-0.466561
0.162774
0.35434
0.114304
0.10255
0.119597
0.0159834
0.0208348
0.00790879
0.00530889
0.0356438
0.0492302
0.0721207
0.0536594
0.0493879
0.0312465
0.0326739
0.0419339
0.0425345
0.194648
0.191966
0.199137
0.206029
0.155919
0.159304
0.130789
0.146129
0.136416
0.0807196
0.112414
0.0916342
0.00728422
0.00741572
0.0051782
0.0195332
0.0234101
0.0118995
0.0093597
0.0127399
0.0102142
0.00911789
0.014413
0.017195
-0.518853
-0.608202
0.665804
0.550129
-0.274548
0.194018
0.20047
0.197035
0.20225
0.205374
0.205998
0.203742
0.20065
0.188625
0.19094
0.186706
0.186442
-0.430405
-0.566568
-0.384664
-0.45028
-0.180572
0.312989
0.0595926
0.00103029
-0.00326718
0.20519
0.572005
0.386234
0.439224
0.465787
-0.680525
-0.28033
-0.610091
0.000405776
-0.175642
0.373236
0.425854
0.448498
0.39462
0.34256
-0.437161
0.201046
-0.359479
-0.322577
-0.131247
-0.23084
0.417066
0.354125
0.362304
0.387544
0.410556
0.363546
0.343988
0.343093
0.378136
0.383098
0.176605
-0.0325895
-0.0800998
-0.114846
0.339526
0.218243
0.273535
0.192273
0.192907
0.196269
0.195068
0.179049
0.185236
0.180278
0.186294
0.188717
0.198617
0.198167
0.194122
0.196623
-0.128015
-0.0864845
-0.379262
-0.527457
-0.509301
-0.545798
-0.479405
-0.577052
-0.451602
-0.299041
-0.00731582
-0.663844
-0.544811
-0.573374
-0.540862
-0.479855
-0.441652
0.0581756
0.132087
0.0631875
0.105891
0.131662
0.142177
0.0227169
0.0185462
-0.00593752
0.012302
0.0681
0.0764994
0.0906042
0.0342205
0.0310408
0.0210831
0.0205479
-0.0109869
-0.0189533
-0.00798268
-0.00305598
0.0196639
0.021066
0.0249348
0.0324276
0.0322543
0.0376762
0.186838
0.188159
0.187594
0.20134
0.211858
0.226342
0.196056
0.173769
0.166684
0.16746
0.145996
0.152611
0.150914
0.160958
0.179065
0.186518
0.184208
0.186945
0.173377
0.174555
0.161339
0.165267
0.147009
0.129718
0.119165
0.0157366
0.0100225
0.0123093
0.0130126
0.00932912
0.0106079
0.0357214
0.0291291
0.0332089
0.0270305
0.0285652
0.0159805
0.0157073
-0.452639
-0.398796
-0.519897
-0.546613
-0.618824
0.566733
0.688079
0.489439
0.291459
0.298424
0.520588
0.650028
0.308479
0.366123
0.483598
0.181406
0.486504
0.199066
0.199188
0.196838
0.196059
0.196785
-0.338988
-0.23931
-0.228021
-0.174226
-0.0559636
0.0575212
-0.062696
-0.133348
-0.00215189
0.0131604
0.308265
0.323636
0.267257
0.293204
0.292025
0.120209
0.195643
0.247119
0.204649
0.245847
0.267019
0.232469
0.259546
0.208094
0.168782
0.168147
0.116955
0.133363
0.111586
0.0966372
0.18932
0.16925
0.178706
0.170723
0.190437
0.218062
0.212903
0.236212
0.250388
0.178567
0.140017
0.149474
0.176759
0.138762
0.150944
0.163868
-0.136257
-0.229537
-0.146457
-0.424848
-0.329318
-0.346697
-0.390182
-0.361199
-0.0740334
-0.773692
-0.738281
-1.37477
0.138571
0.605264
0.368068
0.335803
0.4061
0.380783
0.38082
0.415907
0.425111
0.330254
0.347532
0.349871
0.306626
0.331706
0.35707
0.357118
0.180947
0.0678022
0.0542636
0.0251108
-0.0971197
-0.0659125
0.14081
0.0627968
-0.0103029
-0.00456859
0.156424
0.0529255
0.112609
0.149466
0.08369
0.0414407
0.229741
0.29998
0.289752
0.263381
0.184242
0.197634
0.220399
0.252448
0.279989
0.317399
0.187862
0.190911
0.192885
0.19129
0.186856
0.190196
0.190298
0.192474
0.193487
0.196094
0.195179
-0.00678819
-0.0154822
-0.058644
-0.0278847
-0.256155
-0.295441
-0.372622
-0.326954
-0.0259719
-0.0564232
-0.178643
-0.0940401
-0.0593146
-0.0385984
-0.0522054
-0.0670068
-0.204007
-0.261038
-0.261101
-0.062967
0.072844
-0.0257552
-0.326356
-0.216866
-0.163637
0.0155223
0.0530506
0.0465354
0.0408621
0.0408551
0.0255579
0.0221831
0.0197428
0.0233528
0.0237114
0.0199635
0.0197803
0.0205099
0.0213236
0.0206806
0.0204257
0.174481
0.168949
0.170201
0.165421
0.164944
0.175725
0.179577
0.181101
0.185694
0.187625
0.17922
0.183474
0.186219
0.0242167
0.0197375
0.0220562
0.0202029
0.020215
0.0176946
0.0176452
-0.11962
-0.297646
-0.239611
-0.353828
-0.451751
-0.407944
0.144245
0.105394
0.131091
0.348874
0.213498
0.104366
0.179535
0.30289
0.0039809
0.176592
0.0205322
0.551657
0.420074
0.568002
0.222986
-0.103485
0.0455321
0.0917209
-0.0993564
-0.0158628
-0.00533435
-0.11648
-0.0820674
-0.0531019
0.0409811
-0.0819958
-0.119657
-0.369605
-0.199134
-0.041396
-0.0620252
0.0691373
0.124533
-0.106909
-0.175795
-0.210215
0.294946
0.316705
0.333937
0.303997
0.32691
0.254338
0.244946
0.262354
0.272791
0.267556
-1.10853
-0.819169
-1.76634
-1.0862
-0.635934
0.170273
0.131117
0.400952
0.302735
0.380738
0.364401
0.330504
0.296443
0.302005
0.337645
0.0514149
0.158756
0.135736
0.137504
0.0447827
-0.0178522
0.265364
0.257464
0.298319
0.321636
0.288816
0.322345
0.183178
0.182908
0.185715
0.182382
0.179988
0.181817
-0.0558986
-0.0369057
-0.158155
-0.205974
-0.216877
-0.160747
0.0313251
0.0257327
0.0220189
0.023232
0.0286039
0.0306887
-0.161166
-0.200212
-0.313178
-0.218922
-0.33303
-0.397401
-0.418502
-0.337751
-0.239633
-0.240915
0.103283
0.356032
0.195838
0.331549
0.165147
0.205282
0.132608
0.1235
0.151728
0.0355594
0.115574
-0.134946
-0.632913
-0.544267
0.410716
0.436728
0.22726
0.0359778
-0.190313
0.000495135
0.213954
0.155591
0.196558
0.261752
0.257043
-0.341873
-0.267498
-0.0294357
0.193631
-0.105769
-0.117564
-0.127466
0.0454756
-0.0131013
)
;

boundaryField
{
    wall-4
    {
        type            zeroGradient;
    }
    velocity-inlet-5
    {
        type            zeroGradient;
    }
    velocity-inlet-6
    {
        type            zeroGradient;
    }
    pressure-outlet-7
    {
        type            fixedValue;
        value           uniform 0;
    }
    wall-8
    {
        type            zeroGradient;
    }
    frontAndBackPlanes
    {
        type            empty;
    }
}


// ************************************************************************* //
