/*--------------------------------*- C++ -*----------------------------------*\
| =========                 |                                                 |
| \\      /  F ield         | OpenFOAM: The Open Source CFD Toolbox           |
|  \\    /   O peration     | Version:  2412                                  |
|   \\  /    A nd           | Website:  www.openfoam.com                      |
|    \\/     M anipulation  |                                                 |
\*---------------------------------------------------------------------------*/
FoamFile
{
    version     2.0;
    format      ascii;
    arch        "LSB;label=32;scalar=64";
    class       surfaceScalarField;
    location    "16";
    object      phi;
}
// * * * * * * * * * * * * * * * * * * * * * * * * * * * * * * * * * * * * * //

dimensions      [0 3 -1 0 0 0 0];

oriented        oriented;

internalField   nonuniform List<scalar> 
1300
(
3.75095
5.62643
-6.1356
3.75095
-5.95195
5.62643
-4.53783
4.53783
-1.38958
1.38958
1.87671
1.87425
-3.35302
3.35302
-4.54048
4.54048
-2.75347
2.75347
-5.24642
5.24642
-5.06749
5.06749
4.68352
-4.68352
-4.85736
4.85736
-1.82685
1.82685
-3.71095
3.71095
3.1725
-3.1725
-4.87811
4.87811
-0.480743
0.480743
-0.55355
4.3045
3.1974
3.1974
-2.47235
2.47235
-4.85107
4.85107
6.21829
-6.21829
9.30981
-9.30981
-3.17421
-3.4079
1.32428
-8.15183
-4.62768
-4.62768
-8.44042
8.44042
-2.81399
2.81244
2.9229
-2.9229
-1.74425
1.74425
-4.5088
-0.0290279
-4.5088
4.49644
0.0413844
4.49644
-1.49031
0.100725
-1.49031
4.06965
-4.06965
1.225
0.164586
1.225
3.06603
-3.06603
-1.87721
3.75392
1.87374
-1.87169
6.17619
-1.87926
3.75351
-5.13486
5.13486
-3.16363
-0.189393
-3.16363
3.68055
-0.327528
3.68055
-5.29697
5.29697
-4.44886
-0.0916216
-4.44886
4.60603
-0.0655485
4.60603
2.97651
-2.97651
-2.78619
0.0327258
-2.78619
2.70095
0.0525175
2.70095
0.353582
5.27285
-5.98001
8.79245
-5.27285
0.026426
5.20849
0.0379291
5.20849
-5.10588
0.0383988
-5.10588
5.01007
0.0574127
5.01007
4.77544
-0.0919158
4.77544
-4.79804
0.114518
-4.79804
-3.32509
-3.41949
-4.95913
0.101762
-4.95913
-1.86579
0.0389397
-1.86579
1.76741
0.059439
1.76741
-3.52883
3.52883
-4.13904
0.428089
-4.13904
3.1279
0.044601
3.1279
1.86866
1.88229
5.61962
-5.61962
2.44712
-4.80715
-0.0709645
-4.80715
-4.96171
-4.3481
4.96171
-0.0836
-0.798628
0.317885
-0.798628
3.15921
0.0381891
3.15921
2.62739
0.0735615
-2.62739
0.155038
3.39463
-3.39463
1.82744
0.644916
1.82744
-5.57208
5.57208
4.94853
0.0615455
-4.94853
0.0974549
6.15695
0.0613468
6.15695
-6.19957
-0.0187279
-6.19957
3.36257
-6.77046
-3.41636
4.74624
0.111123
-4.74624
0.118565
2.89872
0.0241844
2.89872
-2.90722
2.90722
-2.97438
0.0514793
-2.97438
-2.16719
0.422932
-2.16719
1.41344
0.33081
1.41344
-4.38577
-0.123031
-4.38577
-4.4182
0.279161
4.4182
0.0782446
0.891095
-0.891095
-1.60128
0.110969
-1.60128
-4.22009
-0.165672
4.22009
-0.150444
-3.94986
-0.11979
-3.94986
-3.02548
0.0511039
3.02548
0.0405465
3.11208
0.0471327
-3.11208
0.0460514
-1.87084
3.75313
-1.88011
3.75385
-4.93798
-0.19688
-4.93798
5.18587
-0.0510167
5.18587
3.35359
0.357352
-3.35359
0.189968
4.05611
-0.375557
4.05611
-5.34124
0.0442657
-5.34124
5.22002
0.0769545
5.22002
4.29914
-0.243035
-4.29914
-0.149719
4.66535
-0.0593165
4.66535
3.02699
-0.0504816
3.02699
-2.93489
-0.0416225
-2.93489
2.81022
-2.81022
2.80279
0.0074335
-2.80279
0.0165931
-11.1327
11.114
-0.0350579
-11.0977
5.17343
5.17343
4.19849
0.576952
4.19849
-5.00914
0.211104
-5.00914
3.32016
-6.73652
3.41108
-6.73617
3.41228
-11.5641
3.3491
-6.76859
5.10167
-5.10167
5.04212
0.0595475
-5.04212
0.0829966
-1.86107
-0.00471937
-1.86107
-2.92243
-0.606405
-2.92243
4.0438
-0.514969
4.0438
-3.03099
3.03099
-3.08281
0.0518282
3.08281
0.0450838
4.73326
-0.067911
-4.73326
-0.0738914
1.03117
0.193828
-1.03117
0.232541
3.58997
-0.195335
3.58997
-3.21711
-0.177521
-3.21711
-1.83718
-0.0238919
1.83718
-0.00974254
-5.81868
0.246605
-5.81868
-11.1907
0.0930539
-11.1528
-6.10651
-6.10651
2.33391
11.1264
-2.90485
-0.030041
2.90485
-0.00613076
2.97304
0.0579487
-2.97304
0.0658186
-2.84699
0.0367644
2.84699
0.0602326
-2.55765
0.390467
-2.55765
-0.980567
0.980567
-1.16815
0.187584
1.16815
0.245293
1.14514
-0.254041
1.14514
1.70008
0.0673268
-1.70008
0.0988083
-3.8463
-0.103559
-3.8463
5.2754
-0.0895267
5.2754
-3.10186
-0.115254
3.10186
-0.074867
-0.0332991
11.1473
-5.14014
0.0342516
5.14014
-11.2086
11.2429
-3.23882
0.681172
3.23882
0.959661
5.29623
0.275844
-5.29623
0.28709
5.15747
0.0625423
-5.15747
0.0558048
-2.40977
-0.512657
-2.40977
-4.59003
-0.347945
4.59003
-0.546232
-11.4761
-0.200907
11.677
-11.4186
6.01959
0.137358
-6.01959
11.3802
-0.856967
-0.0341286
0.856967
0.1236
1.47227
-0.327137
1.47227
3.75069
-0.160723
-3.75069
-0.0956117
-5.34818
0.00694784
5.34818
-0.0727852
-1.90597
-0.503795
1.90597
-0.4337
-4.26658
4.30477
1.90962
-3.33084
-3.43962
-7.67894
1.85104
1.90209
4.29816
-7.1471
-4.41701
-7.02854
7.27546
-6.98837
-9.30315
9.21124
7.44674
-7.56653
-5.77864
5.82373
6.48151
-6.44097
1.8788
1.87512
6.7483
-6.93769
-15.0553
14.8584
9.71595
-9.80757
11.6524
-11.6081
-12.8689
12.9314
-5.75197
5.7847
-6.62909
6.58747
-6.79692
6.72206
-3.27965
-3.45652
9.2384
-9.13663
11.7127
-11.7837
-7.6231
8.05119
3.38318
0.92159
3.43031
-1.88158
3.76038
-1.87193
3.78155
3.42016
-6.69981
3.31636
-6.75598
6.08501
5.62773
-6.00141
-1.67753
-5.84773
5.87192
-5.82312
5.88335
8.96291
-8.99194
-1.88588
3.761
-1.86797
3.77006
-3.42348
-2.35516
3.37888
0.919281
5.65154
3.58685
-5.76267
-1.26587
-7.65437
7.49365
-7.95958
7.78206
-0.458937
5.82898
-5.37004
4.39213
-1.55474
7.38373
5.72071
5.93182
5.86889
-5.59304
1.11948
-6.48952
-6.39207
-2.66051
2.77148
2.6758
-2.51121
5.87717
1.56958
5.72672
-5.47064
-2.09589
-5.5742
3.81519
2.00854
3.86702
4.05623
2.42529
4.10733
3.02825
-3.03663
0.00837933
-3.05855
6.0868
0.72437
-5.41371
-4.49443
4.99868
1.74962
4.67115
-4.49365
-2.44404
-4.30368
-9.62746
-5.42783
-9.97541
8.90759
5.95083
8.85657
-9.34748
9.2747
6.6088
3.10715
6.54325
-6.13032
-3.67725
-6.28004
10.6215
-2.07576
-8.54577
-7.41518
-5.45369
7.33823
4.31412
7.7591
5.17232
7.8149
3.40885
7.21268
-7.72297
2.26928
-3.84995
-1.90202
-3.83336
3.7441
2.0406
3.79662
-4.12846
-2.50063
-4.1585
-4.19673
-2.60019
4.24721
2.34026
-4.30518
-3.6544
4.42044
2.30162
3.12557
-7.54257
3.64302
-7.09954
-6.45057
-2.68606
-6.36758
4.18901
2.60095
-6.78997
-2.5108
10.9443
-5.31658
9.26678
-7.24349
-4.54022
-7.31738
-6.6219
-1.00119
-6.34274
-8.85732
8.34467
-9.25975
8.74478
13.4984
-6.76044
-6.73791
-3.97065
-2.47032
3.9246
-0.494291
-3.71036
3.71874
0.0500141
3.83156
4.75315
4.25886
-3.88817
-1.93495
-3.82235
3.84572
2.03763
3.88249
6.70676
2.25615
6.74814
-6.42233
-2.5696
-6.54537
9.09639
-8.67346
2.9377
-2.96159
5.20351
2.57855
-5.00818
-2.64619
6.01422
-3.03799
-2.97623
-12.2375
10.602
1.63543
-4.85374
-0.461604
0.0191388
-5.51553
-3.78763
5.40101
0.530809
11.1328
7.34521
-5.51453
5.76113
6.16244
6.22398
-0.168088
5.84638
-5.16521
5.19601
-2.22312
-2.97289
5.26505
-5.43072
-1.28031
-5.23895
3.95864
0.296
1.90271
-1.58482
-2.08816
-0.572343
-1.98936
1.62302
1.05278
1.81684
0.950235
1.82124
-2.9971
0.589243
2.40785
-2.04686
-1.92197
-3.55944
-0.8977
4.45714
5.47064
2.023
-5.37503
-0.199171
2.73401
-2.67457
-0.794984
-2.76446
2.0165
-2.81148
-3.52039
-1.77568
5.29607
-3.36987
-0.452484
3.31192
0.555098
-3.79099
-2.05674
3.73952
0.367818
-3.14012
6.25022
-3.11011
-5.07507
2.53188
3.55492
4.54042
-4.79096
2.43812
2.35284
-1.23604
4.81614
-0.144988
4.44058
-5.70399
3.25994
4.78128
3.26991
-5.13863
0.834946
-4.86904
10.5236
-8.10558
-2.41798
6.8202
3.70336
7.79154
5.70681
-5.87041
13.662
-1.12417
-6.98141
5.99322
-2.72331
5.87057
-8.59387
-11.5774
4.59597
-9.67922
9.71154
-0.0323117
-2.41978
-6.9277
12.099
-1.83935
-10.2597
7.01723
-5.86229
-4.82377
10.6861
-7.93805
8.50102
-3.33084
-5.17018
-7.553
-4.05509
7.54605
1.72864
-9.81588
12.0852
-2.60319
5.81855
0.7247
5.75923
4.78494
-5.94562
1.16068
3.1531
-6.48395
4.32502
-10.2706
-4.99918
9.72018
-4.721
-7.68524
-6.91674
-0.768506
1.95794
10.1272
-7.13025
5.40986
1.72039
3.34536
0.537127
-3.3528
-0.480565
0.353409
4.45932
-4.81273
4.15003
4.22359
3.38544
1.07389
3.79853
2.07339
-3.7924
-0.3661
-4.05524
1.45505
-1.71498
-3.57448
5.02953
-4.00365
0.429169
-2.67059
-3.51625
6.18684
-4.5726
3.08725
3.16297
5.12488
-4.89177
1.37551
-2.41656
-2.47521
2.62814
-4.34312
1.92627
3.10326
4.22789
0.573492
4.96332
4.75686
-7.56427
0.464729
8.34372
-7.07784
1.77382
6.04109
-7.18368
0.266943
-6.10063
1.07535
-6.39193
-5.71461
5.62249
-6.62368
-2.97139
6.04521
0.702928
-6.12346
-0.219282
-5.89628
-2.96104
-6.40008
-3.15502
-6.10473
-9.02543
-1.63353
-7.3919
6.71113
-6.81626
-3.15915
7.36249
1.38229
-7.29863
7.2645
-7.33874
7.0116
0.0946153
3.62413
4.35348
1.88316
-2.38808
4.27125
-4.96268
7.21883
-8.41206
3.44938
3.99299
-6.5626
-4.41906
5.01177
4.08462
5.34258
8.92094
-10.7002
1.7793
-10.9534
12.0924
-1.139
-16.69
5.73657
-7.76905
2.69344
0.244261
2.68872
0.669065
2.39965
-3.06871
-2.29253
-2.30227
-2.25665
-3.28682
5.54347
1.10751
-3.33153
2.22402
-3.40764
4.51514
-0.116787
-3.21474
5.20631
-2.80666
5.45057
-3.52442
1.92614
3.20756
5.47139
-2.26383
4.19524
-1.61669
1.73778
-4.00161
-1.54904
-2.98911
5.02971
-3.19773
3.6269
-0.216982
3.84388
-4.00893
0.970936
-0.623491
3.6001
3.75513
4.1053
-3.03142
2.87253
-4.48922
-1.12908
-3.91573
-0.812463
-0.236778
-3.73889
3.97567
6.14997
-6.38674
-5.30649
9.63427
-4.32779
7.7431
-5.4257
-2.3174
-4.27979
-4.39367
3.88932
1.95706
9.70015
0.202071
-5.62777
-4.96313
-4.00347
3.20703
1.98898
-2.08587
3.7213
2.06673
-0.164024
0.628702
1.18814
1.90271
-1.27401
0.16414
1.73857
-1.42068
2.012
0.722012
-2.07933
0.0899711
-1.3807
3.3972
1.02715
-2.07993
0.805922
1.13406
-3.35718
4.66937
-2.33557
-2.3338
5.80343
1.18441
-3.51998
4.05454
-3.75854
2.2913
-3.189
-1.22868
-4.98722
-3.41765
-2.42996
4.65398
-3.11351
5.13652
1.13359
-4.93735
6.07094
-3.48484
1.70916
-3.00953
3.73154
-1.0303
-1.97923
2.6965
2.59957
-2.79649
0.0320303
-0.0999903
2.28668
-2.38667
-0.5248
-2.57166
-4.54708
4.9149
-2.14945
4.58757
2.1218
-1.92081
6.50838
1.81274
-3.73356
-3.26232
-3.7148
-1.38072
3.15971
-1.39479
-4.88525
-6.56497
5.12828
-0.687701
-6.93161
9.55659
-2.62498
-5.18199
1.92204
4.89816
-8.11653
1.63258
-3.79151
5.76508
5.62009
4.93239
-11.6797
1.42007
-5.7289
2.90635
-8.63525
6.6097
-3.93796
8.53393
-11.1063
7.94714
-9.724
6.11595
-2.5193
5.63012
-4.46944
2.91565
-6.97074
-5.24209
6.91718
-3.81002
7.64188
-4.27285
11.9147
-6.87604
7.01895
4.89578
-1.46961
-5.84777
-6.8625
5.39289
0.156448
5.91568
4.95476
-2.88137
4.58866
2.2551
-4.67166
-2.08803
-6.53803
1.86637
-3.37506
-1.905
3.77137
3.21989
3.75701
1.29616
-3.27645
6.84273
-7.61124
-2.12173
-3.59288
6.796
-1.40311
4.13616
-7.72904
-2.25577
4.8025
-0.587686
-4.21481
1.95794
-4.92933
1.35351
-6.28283
5.27017
-5.48946
2.16445
-9.9335
-5.13418
-5.01058
-2.22201
-5.11673
-7.6303
5.40829
-1.89373
5.37077
-8.65037
8.06269
-3.44205
8.85034
-5.29247
-1.10761
5.72617
1.28543
10.1358
0.179415
-4.59848
-1.80803
3.90354
-2.09551
1.399
-3.55948
0.344059
2.49843
3.305
-6.45707
-0.10553
-4.70401
-3.91316
7.99778
5.72111
11.8711
1.17084
9.23481
-1.23703
10.4057
4.10555
4.35085
-2.94225
4.72155
1.03342
4.4828
-0.8392
2.76534
1.84952
1.88846
0.786113
2.2922
1.46293
3.26313
0.19442
-2.10785
4.65737
-8.66084
-0.970402
-8.08389
1.12735
5.75009
-4.62274
3.11588
-1.1269
1.02037
0.242957
-1.81389
1.57094
-2.72993
-1.97792
-0.23935
-1.5209
2.32682
1.8763
-2.08747
-0.642459
0.270521
-3.68817
2.91848
-2.88645
-0.286881
5.78406
-2.73496
0.348284
-1.0258
-2.22338
-2.79572
2.70575
6.24496
0.263418
3.13485
5.17832
3.12158
0.240207
6.90274
-6.93505
-3.3679
-5.51498
1.09472
5.99288
2.19926
7.92796
7.09503
5.69192
-2.03712
-9.64836
6.5604
-1.83885
5.4214
-1.20658
-5.07625
4.90756
2.31127
-5.61048
0.121027
-4.95522
-6.79408
-0.420258
8.48294
-9.71552
8.6079
5.64687
1.74503
-4.34265
-0.667934
4.15507
0.19578
10.6014
-1.13841
-6.88781
8.02623
-4.61167
3.64127
0.937732
2.78357
2.50867
1.38177
-5.50604
-10.1288
-1.76278
-1.5944
-4.09658
0.360564
-2.23686
6.27433
-2.63306
3.95694
5.39317
6.41354
-2.1519
-4.23484
6.47969
-2.52275
3.89078
)
;

boundaryField
{
    wall-4
    {
        type            calculated;
        value           uniform 0;
    }
    velocity-inlet-5
    {
        type            calculated;
        value           uniform -3.75095;
    }
    velocity-inlet-6
    {
        type            calculated;
        value           uniform -5.62643;
    }
    pressure-outlet-7
    {
        type            calculated;
        value           nonuniform List<scalar> 8(6.1356 5.95195 6.58211 6.82756 6.74458 6.77893 6.73124 6.76137);
    }
    wall-8
    {
        type            calculated;
        value           uniform 0;
    }
    frontAndBackPlanes
    {
        type            empty;
    }
}


// ************************************************************************* //
