/*--------------------------------*- C++ -*----------------------------------*\
| =========                 |                                                 |
| \\      /  F ield         | OpenFOAM: The Open Source CFD Toolbox           |
|  \\    /   O peration     | Version:  2412                                  |
|   \\  /    A nd           | Website:  www.openfoam.com                      |
|    \\/     M anipulation  |                                                 |
\*---------------------------------------------------------------------------*/
FoamFile
{
    version     2.0;
    format      ascii;
    arch        "LSB;label=32;scalar=64";
    class       volVectorField;
    location    "16";
    object      U;
}
// * * * * * * * * * * * * * * * * * * * * * * * * * * * * * * * * * * * * * //

dimensions      [0 1 -1 0 0 0 0];

internalField   nonuniform List<vector> 
918
(
(0.985181 -0.000476626 0)
(0.00500074 2.96626 0)
(-0.00627046 1.62604 0)
(0.979733 0.00210075 0)
(-0.00202846 1.58514 3.39941e-21)
(-0.0070298 2.94878 -1.86192e-18)
(0.848699 1.2016 7.35931e-19)
(0.474108 0.222503 -9.03817e-21)
(0.999912 -0.000314598 0)
(-0.00753857 0.988158 0)
(-0.000923372 1.3092 0)
(0.80542 -0.00713784 0)
(0.0111051 2.93032 0)
(0.00171795 2.79438 0)
(-0.0177819 3.16817 1.09227e-18)
(-0.00607548 1.49932 -1.25245e-20)
(0.578353 0.101638 5.64799e-19)
(0.171372 1.1596 6.64286e-19)
(0.963751 0.005158 0)
(-0.00345845 1.42803 0)
(0.158849 0.26615 -4.78388e-19)
(1.0017 -0.00508135 0)
(1.00026 -0.00976033 0)
(0.97573 -0.00650945 0)
(0.722637 -0.026765 0)
(0.0182951 2.62974 0)
(-0.0151394 2.91016 6.42667e-19)
(-0.0158515 1.65172 0)
(-0.0157402 1.75845 0)
(-0.0149492 1.64786 0)
(-0.00299545 1.81943 0)
(-0.00203017 1.60657 -2.69e-21)
(-0.00486901 1.50596 0)
(-0.0206261 2.98758 -6.50883e-23)
(-0.0167064 3.00531 1.44733e-18)
(0.00210706 3.00021 0)
(0.864744 -0.00733394 0)
(0.386298 0.925756 -2.73698e-20)
(0.842771 1.21312 -1.0375e-18)
(0.993192 1.06032 9.72536e-19)
(0.707113 1.30251 -1.72473e-19)
(0.70345 1.28405 9.74591e-19)
(0.500497 0.292193 8.81874e-21)
(0.492097 0.196511 0)
(1.18412 0.572302 0)
(0.471021 0.314407 4.1474e-20)
(0.431263 0.215822 -4.30383e-20)
(0.92017 -0.00692516 0)
(1.00039 7.83007e-05 0)
(0.999924 0.000343033 0)
(1.0035 -0.00779247 0)
(1.00093 -0.00106427 0)
(1.00016 -7.24355e-06 0)
(0.0689051 1.57995 -3.64009e-19)
(-0.0117034 1.04363 0)
(0.0251429 0.9064 0)
(-0.042697 1.1327 0)
(-0.0282346 1.07185 0)
(-0.00647671 1.57953 0)
(-0.00699165 1.46501 0)
(-0.0084833 1.29361 0)
(-0.00785519 1.5008 0)
(-0.0053381 1.32357 0)
(0.882717 -0.000565033 0)
(0.889882 0.00951608 0)
(0.818249 -0.000517575 0)
(0.882657 0.0142431 0)
(0.790238 -0.00834892 0)
(0.0147058 3.00039 6.81465e-19)
(0.0115343 3.00787 0)
(0.00614146 3.00286 0)
(0.0135538 2.99732 7.59636e-24)
(0.00799912 2.95846 -1.01282e-18)
(0.0145011 2.98207 0)
(0.0107802 2.90364 0)
(0.0254147 2.93019 1.35702e-24)
(0.00400689 2.82487 0)
(0.0318397 2.9152 0)
(-0.00698098 2.74432 0)
(0.309652 3.56649 0)
(-0.132657 3.64831 0)
(0.140142 3.25871 1.01652e-18)
(-0.0113493 2.99188 0)
(-0.0127928 1.79806 0)
(-0.00457512 1.63783 1.23554e-20)
(-0.00590837 1.51505 -2.07579e-20)
(0.639512 0.164539 -1.94787e-19)
(0.596574 0.0619056 -1.89519e-19)
(0.605303 0.194463 -5.82891e-19)
(0.556053 0.126933 -3.88793e-19)
(0.247992 0.956789 0)
(0.263396 1.28662 -6.48424e-19)
(0.330649 1.27233 1.06624e-18)
(0.988048 0.00843754 0)
(0.943627 0.00613757 0)
(1.00032 0.000560762 0)
(1.00285 0.00930452 0)
(1.00286 0.00838634 -1.08008e-18)
(0.992037 0.00979202 8.155e-19)
(-0.0157492 1.55608 0)
(-0.00853812 1.41308 0)
(-0.0227796 1.65856 0)
(-0.0186378 1.59239 0)
(-0.00217306 1.45905 0)
(0.232732 0.28274 1.47279e-19)
(0.280108 0.263251 0)
(0.993567 -0.00829359 0)
(0.95436 -0.00675736 0)
(0.856471 0.0181359 0)
(0.82335 0.0331821 0)
(0.768725 -0.0177494 0)
(1.01437 -0.00573489 0)
(0.769254 0.0483202 0)
(0.637147 -0.0158943 7.55728e-19)
(-0.0351567 2.86711 3.22105e-19)
(0.0439261 2.90773 0)
(0.0572033 2.88271 0)
(-0.0053869 2.69585 0)
(-0.0131859 2.98522 5.90166e-19)
(-0.0183881 2.89551 0)
(-0.0153967 2.98815 -1.86827e-18)
(-0.0134561 2.92522 6.45395e-19)
(-0.0129548 1.81223 0)
(-0.0102272 1.80751 0)
(-0.00197533 1.63627 -2.41595e-22)
(-0.00273907 1.6064 0)
(-0.0055783 1.50029 0)
(0.929866 -0.00473146 0)
(0.854597 -0.00559276 0)
(0.858712 0.00958834 0)
(0.942715 -0.00532276 0)
(0.883408 -0.00677405 0)
(0.500781 1.12165 2.3914e-20)
(0.55413 1.17915 0)
(0.342976 0.858033 4.60575e-21)
(0.287741 0.71969 0)
(0.955499 1.09171 -2.80089e-19)
(1.06892 0.897129 5.72077e-19)
(0.432444 1.36302 0)
(0.554478 1.36535 0)
(0.549896 1.30925 0)
(0.0954949 0.125819 -1.15392e-19)
(0.531423 0.269256 0)
(0.515919 0.171328 1.12014e-19)
(1.04013 0.946667 0)
(1.10821 0.791568 0)
(1.13471 0.73694 -4.97482e-19)
(1.16247 0.630188 0)
(1.21332 0.411426 5.9911e-20)
(0.955136 -0.00766939 0)
(0.962243 -0.00926556 0)
(0.902395 -0.00819355 0)
(0.984167 -0.00899457 0)
(0.975051 -0.00915782 0)
(0.936836 -0.00630463 0)
(1.00004 0.0022521 0)
(1.00092 0.00151354 0)
(0.999887 0.000836897 0)
(0.0681852 1.80351 2.14608e-19)
(0.074486 1.53494 0)
(0.0387296 1.79877 1.21932e-19)
(0.0328721 1.58207 -2.30809e-19)
(0.0977476 1.15374 -5.50049e-19)
(0.0296277 1.04352 0)
(0.121609 0.993744 0)
(-0.0451808 1.25506 0)
(-0.0234555 1.18218 0)
(-0.00321489 1.72511 -9.42812e-22)
(0.000426594 1.60796 0)
(-0.00708233 1.70458 -4.28762e-20)
(-0.00873149 1.56427 -2.96293e-21)
(-0.0295679 1.36037 0)
(-0.0175118 1.42732 0)
(-0.0135444 1.24876 0)
(-0.0119546 1.5224 0)
(-0.00817308 1.34382 0)
(0.958767 0.0141115 0)
(0.901834 0.00267583 0)
(0.94059 0.0094279 0)
(0.870647 0.00101223 0)
(0.819628 -0.00239032 0)
(0.909125 0.00199995 0)
(0.902515 0.00477259 0)
(0.81835 -0.00489173 0)
(0.00597547 3.06492 -5.9824e-21)
(0.0163355 3.05799 0)
(0.0147199 2.96915 0)
(0.0085785 2.87636 0)
(0.926503 3.98433 0)
(1.2418 3.31321 1.01377e-18)
(0.0714951 3.08431 0)
(-0.0261202 2.91227 0)
(-0.0140095 1.79479 0)
(-0.0143067 1.79502 0)
(-0.0132161 1.79467 0)
(-0.00780982 1.80778 4.15728e-21)
(-0.012097 1.80444 0)
(-0.00934624 1.80262 0)
(-0.000363879 1.52544 9.72806e-22)
(-0.000717232 1.66504 2.32693e-20)
(-0.00363026 1.65351 2.12108e-20)
(-0.00289041 1.51761 0)
(0.666306 0.118059 2.85465e-19)
(0.610335 0.0273243 -2.78255e-19)
(0.196931 1.4862 0)
(0.294632 0.722382 -2.26917e-19)
(0.1063 1.59251 -7.7065e-19)
(0.183332 1.17745 7.67619e-19)
(0.902992 0.00947524 0)
(0.968505 0.011986 0)
(0.97548 0.0109152 0)
(0.925894 0.00770349 0)
(-0.0157292 1.53533 0)
(-0.0166206 1.54381 0)
(-0.0090652 1.37452 0)
(0.427993 0.327608 3.80301e-19)
(0.357418 0.307641 -4.62982e-19)
(0.371583 0.238801 0)
(1.13213 0.0828403 -3.28272e-21)
(1.11691 0.0377016 0)
(1.04804 0.0338746 0)
(0.960312 0.00580315 0)
(0.678753 0.084743 0)
(0.707767 0.062391 -1.2167e-18)
(0.616857 0.0123258 4.64856e-19)
(0.0100221 2.98273 4.14858e-19)
(-0.0318433 2.86832 4.91343e-20)
(0.00381517 3.05025 -1.29328e-20)
(0.0199466 3.0435 4.65116e-19)
(-0.0150245 2.99656 2.1466e-20)
(-0.0129773 2.94941 -8.69183e-23)
(-0.0172935 3.01201 -4.07266e-19)
(0.0147879 3.02408 2.94606e-19)
(0.00729043 3.03678 -4.60162e-19)
(0.935592 0.00815115 0)
(0.932161 0.00271673 0)
(0.85605 -0.000591813 0)
(0.956315 0.0131116 0)
(0.941821 0.0133094 0)
(0.881093 0.00807016 0)
(0.914759 0.00701493 0)
(0.923133 0.0132639 0)
(0.832945 0.00490398 0)
(0.712901 1.40926 3.23469e-19)
(0.749396 1.52081 0)
(0.218631 0.363908 2.25859e-20)
(0.170137 0.549901 1.78584e-19)
(0.253299 0.669882 -1.05698e-19)
(0.21742 0.555941 1.94024e-19)
(0.281666 0.670766 6.86717e-19)
(0.111045 0.160542 2.15954e-19)
(0.583678 0.223677 -4.01138e-19)
(0.555408 0.246438 1.03229e-19)
(0.536214 0.155703 2.1066e-19)
(1.20111 0.467314 2.94132e-19)
(1.2164 0.25917 3.08575e-19)
(0.0387789 1.77198 1.12736e-19)
(0.0312902 1.59594 0)
(1.00177 0.0259719 0)
(0.970778 0.01693 0)
(0.926115 -0.000894739 0)
(0.0110139 3.0747 0)
(0.0201099 2.94419 7.96956e-19)
(0.0165524 2.95647 0)
(0.00609261 2.85064 -7.90472e-19)
(0.00613617 3.0921 1.88874e-19)
(0.00720418 3.08226 0)
(0.78394 1.82584 -2.38522e-19)
(1.24858 2.50852 6.55862e-19)
(0.766943 1.96698 -1.49037e-18)
(0.0212346 2.98525 -2.99129e-19)
(0.0372252 3.00839 0)
(-0.0318333 2.88315 0)
(-0.00353789 1.66961 -5.00982e-21)
(-0.000912076 1.66895 -3.76319e-21)
(-0.000839088 1.53845 -6.87385e-21)
(0.252574 1.33368 7.06798e-19)
(0.263275 0.476282 -4.8837e-19)
(0.0631588 1.77158 4.84449e-19)
(0.0992289 1.69496 -6.16831e-19)
(0.109109 1.39892 9.61772e-20)
(0.0061716 3.11814 -9.91422e-19)
(0.0129579 3.11884 1.08106e-18)
(-0.00873839 2.98073 5.12577e-19)
(-0.00325791 2.97778 -4.51964e-19)
(-0.0217087 2.88198 -5.22049e-19)
(0.00862467 3.09892 -1.38167e-18)
(0.00185758 3.10579 1.3835e-18)
(0.207924 0.583965 0)
(0.149214 0.548476 -3.48786e-19)
(0.141651 0.188643 1.54006e-19)
(0.316939 0.80059 6.44887e-19)
(0.174503 0.210876 -9.84249e-19)
(1.21296 0.170533 -5.59601e-20)
(1.21523 0.311019 0)
(1.20018 0.118476 1.21199e-19)
(0.0057467 1.75486 -1.13702e-21)
(0.027554 1.77478 0)
(0.0128962 1.6051 0)
(0.307543 1.20039 -2.53582e-19)
(0.355886 1.0199 -5.41346e-19)
(0.186524 0.311262 9.17787e-19)
(1.00583 -0.0110348 0)
(1.00771 -0.00776713 1.96962e-19)
(-0.0134884 1.8011 0)
(-0.0226489 1.80985 0)
(1.00232 0.00363665 1.90155e-21)
(1.00351 0.00937879 4.05018e-19)
(-0.00749249 1.81129 -5.46555e-21)
(-0.00578384 1.81014 0)
(0.0397801 3.18463 1.02985e-19)
(0.398858 3.50422 0)
(1.10162 0.644912 6.16484e-20)
(1.01167 0.0120804 -2.43232e-21)
(1.02086 -0.0113704 0)
(1.00172 0.00017809 7.71206e-24)
(-0.128878 1.19829 0)
(-0.100963 2.46201 0)
(-0.0598101 1.71426 0)
(-0.0547778 1.93429 6.24975e-20)
(-0.0397496 1.86524 3.73502e-20)
(1.0038 0.00920454 2.35704e-21)
(1.04461 0.0154715 0)
(1.06993 0.0285323 0)
(-0.0156013 1.79636 0)
(-0.0103926 1.82407 0)
(-0.0261008 1.79276 0)
(0.308938 1.30494 -4.71201e-19)
(1.01121 -0.00970701 0)
(1.00948 -0.0155116 0)
(1.00227 0.000479148 2.4847e-19)
(1.00572 -0.00487514 -2.96815e-19)
(1.00106 -0.000980981 0)
(-0.0176177 1.79452 0)
(-0.0155454 1.79515 0)
(-0.0148871 1.79605 0)
(-0.02496 1.79455 0)
(-0.0210848 1.79262 0)
(-0.0245576 1.79535 0)
(1.02515 -0.00849518 0)
(1.02114 0.0185732 -1.01335e-21)
(0.796397 1.26382 5.28049e-19)
(1.00305 0.000314167 -2.52101e-19)
(1.00328 0.00575188 3.01329e-19)
(1.00123 0.00204706 0)
(1.01181 0.0103438 2.44564e-19)
(1.00782 0.0081225 -3.03366e-19)
(1.00872 0.0142673 0)
(-0.0102873 1.82396 0)
(-0.00837997 1.81852 1.0899e-20)
(-0.00855511 1.81734 -7.5112e-21)
(1.18223 0.252236 -6.17448e-20)
(1.12164 0.0832642 0)
(0.0570007 3.07935 -5.0908e-19)
(0.0690001 2.8513 -4.12775e-20)
(0.14799 3.20043 7.77152e-19)
(0.142519 3.22865 3.46769e-21)
(0.140293 3.24516 0)
(0.0217297 3.13881 1.09525e-19)
(0.0811764 3.16353 4.96986e-19)
(0.0743628 3.19083 -2.12123e-19)
(0.0264698 3.12824 0)
(0.695821 0.325437 0)
(0.625528 0.392252 0)
(1.08049 0.674746 -2.40142e-19)
(1.07485 0.808356 -8.71014e-20)
(1.13854 0.560997 0)
(1.17135 0.511349 0)
(1.01558 0.0129023 -4.54072e-19)
(1.0135 0.0146953 -1.26153e-21)
(1.02428 -0.0125319 0)
(1.01834 -0.0200534 0)
(1.0068 0.00310819 0)
(1.00999 0.00395559 0)
(1.00424 0.00207118 0)
(1.00956 0.00662086 0)
(1.00747 0.00536903 0)
(1.0055 0.00496785 0)
(-0.14092 1.23899 0)
(-0.147201 1.25155 0)
(-0.0537983 1.16712 0)
(0.0681047 1.18633 0)
(-0.0825275 2.56734 0)
(0.0426389 2.59055 -2.50987e-19)
(-0.119015 2.46582 0)
(-0.0913099 2.35683 8.09562e-20)
(-0.0443143 2.08418 -1.19384e-19)
(-0.0490654 1.72306 0)
(-0.031532 1.73857 0)
(-0.0791315 1.68372 0)
(-0.064566 1.63168 0)
(-0.122888 1.86352 -2.86017e-20)
(-0.0513021 1.88375 4.38675e-20)
(-0.0520694 1.92804 5.77654e-20)
(-0.0435573 1.90707 0)
(-0.0370453 1.86395 -8.50112e-20)
(-0.0188012 1.85085 -4.22401e-20)
(-0.111968 1.85094 2.27918e-20)
(-0.0738196 1.85977 -5.85096e-20)
(-0.0792732 1.89031 -7.63249e-20)
(1.01209 0.019204 4.50309e-19)
(1.01155 0.004462 4.58575e-21)
(1.00548 0.019239 -4.6635e-19)
(0.993081 0.0143476 5.94027e-19)
(1.04312 0.0202096 0)
(1.0364 0.00854757 0)
(1.06394 0.0396255 0)
(1.05144 0.0237129 0)
(1.05501 0.0117277 0)
(1.10509 0.0763744 0)
(1.08028 0.0487697 0)
(1.08965 0.0362107 0)
(-0.0108798 1.81309 -1.36712e-21)
(-0.0160866 1.80193 0)
(-0.0125578 1.80607 0)
(-0.0102875 1.82875 1.26786e-20)
(-0.00874165 1.83013 -5.65386e-22)
(-0.0213864 1.79818 1.23738e-20)
(-0.0216109 1.79704 -1.24972e-20)
(-0.0254208 1.79724 0)
(-0.0227863 1.79767 0)
(-0.0218623 1.79767 0)
(-0.0261585 1.79136 0)
(-0.0234209 1.7815 0)
(0.450109 1.38582 8.92663e-19)
(0.404177 1.41723 3.28074e-19)
(0.628654 2.42641 -1.60868e-19)
(0.416568 2.5719 4.02047e-19)
(0.537692 2.12894 -1.10505e-19)
(1.02116 -0.00799641 0)
(1.0156 -0.00937437 0)
(1.0163 -0.0147955 0)
(1.00776 -0.000760106 0)
(1.00446 -0.00127978 0)
(1.00726 -0.00481505 0)
(1.00993 -0.00378699 0)
(1.01385 -0.00433052 0)
(1.02249 0.0172157 4.38013e-19)
(1.01534 0.0212495 -5.51582e-19)
(1.02383 0.0158226 -4.3649e-19)
(1.01977 0.0117598 5.46268e-19)
(0.765228 1.29791 0)
(0.690199 1.35649 6.25813e-19)
(0.866827 1.19429 3.63214e-19)
(0.903926 1.16943 -4.82737e-19)
(1.1441 2.61616 -5.34322e-19)
(0.833721 0.105372 2.9277e-19)
(1.12311 0.0963809 0)
(1.1656 0.168847 5.53066e-20)
(1.1592 0.152957 2.41511e-21)
(0.973113 0.12335 0)
(0.151841 2.97204 1.05516e-19)
(0.1293 2.87814 -6.43261e-19)
(0.0445991 2.34734 4.75274e-19)
(0.113142 0.12241 -1.97066e-19)
(0.343216 3.43124 -4.49119e-19)
(0.19895 3.32383 0)
(0.239086 3.36853 5.84898e-19)
(0.256515 3.04457 -6.79512e-19)
(0.349635 3.20163 0)
(0.00746332 3.12051 2.61998e-20)
(0.0190485 3.12936 -3.34375e-19)
(0.0165454 3.12517 4.92163e-19)
(0.0383318 3.13997 0)
(0.0368918 3.15216 0)
(1.21388 2.61401 0)
(0.49938 0.842997 -2.2805e-19)
(1.01541 0.984736 -2.00939e-19)
(0.959177 1.04747 0)
(0.797571 0.954275 5.4946e-20)
(1.03578 0.869606 3.13891e-20)
(0.405098 0.483017 -5.32535e-19)
(0.720687 0.327008 -2.28246e-20)
(0.704066 0.288891 2.22412e-19)
(0.626982 0.425483 1.78636e-20)
(0.570658 0.414471 -7.33962e-19)
(0.70471 0.349206 0)
(0.717795 0.424892 3.71958e-19)
(0.721362 0.417241 0)
(0.671016 0.400876 0)
(0.667826 0.331908 0)
(0.735897 0.598044 1.35549e-19)
(1.17987 0.269293 -5.47798e-20)
(1.18015 0.406076 0)
(1.1882 0.361857 0)
(0.76412 0.217833 3.32848e-19)
(0.784163 0.519427 -1.85999e-19)
(0.706432 0.502445 -3.01584e-19)
(0.90489 0.397307 -2.84437e-19)
(1.01993 0.0160416 2.97171e-19)
(1.01741 0.0141727 -3.06508e-19)
(1.01372 0.0167046 0)
(1.02404 -0.0124573 0)
(1.02323 -0.0167488 -2.71615e-19)
(1.01646 -0.0215865 2.68436e-19)
(1.03448 0.00612725 0)
(1.02757 0.0149221 0)
(1.01134 0.00417856 0)
(1.01507 0.00823103 0)
(1.0166 0.00384292 0)
(1.01339 0.00134546 0)
(-0.17652 1.3576 0)
(-0.159264 1.39141 0)
(-0.072347 1.08608 3.78301e-19)
(0.312826 1.28555 2.91873e-19)
(0.148611 1.16491 6.37891e-19)
(0.224448 1.21807 -3.31396e-19)
(0.157848 1.18523 0)
(-0.117825 1.95313 6.77034e-19)
(-0.253886 1.84209 0)
(0.527332 2.23404 1.64748e-19)
(0.424605 2.46424 2.20856e-19)
(0.127508 1.68218 -5.95337e-19)
(0.391218 1.17569 2.94004e-19)
(0.221046 1.15681 2.31437e-19)
(0.498724 1.23936 6.12992e-19)
(0.379815 1.76943 -5.63412e-19)
(0.484062 1.77643 -4.77513e-19)
(-0.23539 2.05406 2.00145e-21)
(-0.0679231 2.15422 0)
(-0.251387 2.23017 4.73165e-21)
(-0.227529 2.13832 0)
(-0.0852254 2.31974 -9.16075e-20)
(-0.0476505 2.19148 0)
(-0.123259 1.77308 -1.80465e-20)
(-0.165814 1.82222 0)
(-0.154685 1.70144 0)
(-0.128838 1.72499 2.03601e-20)
(-0.0621727 1.96445 -1.4118e-20)
(-0.0465965 2.05576 1.32125e-19)
(-0.0425575 2.00995 8.96844e-22)
(-0.0662991 1.82641 2.50801e-20)
(-0.0829952 1.81818 -1.19852e-20)
(-0.0264916 1.75467 0)
(-0.0207503 1.76042 0)
(-0.236792 1.90354 -4.90841e-21)
(-0.216308 1.73088 -2.06078e-20)
(-0.197152 1.82749 2.19895e-20)
(-0.317177 1.89335 0)
(-0.0176313 1.81825 -4.76407e-20)
(-0.0167572 1.82735 2.27231e-20)
(-0.0171604 1.82799 -6.91238e-21)
(-0.0530888 1.82018 -3.00036e-20)
(-0.0276899 1.84553 -1.12445e-20)
(-0.0370287 1.85361 6.0133e-20)
(1.02307 0.00877614 -2.9247e-19)
(1.02003 0.00880928 2.96011e-19)
(1.01719 0.00157513 0)
(1.00004 0.045048 4.21276e-19)
(0.993757 0.0334506 -4.94109e-19)
(0.96734 0.0244426 5.70244e-19)
(0.995491 0.0800076 -5.54718e-20)
(1.02622 -0.00235528 0)
(1.03252 0.0111075 2.46035e-19)
(1.02667 0.000779084 -2.43954e-19)
(1.04047 0.0386869 -1.36126e-20)
(1.04447 0.0274007 1.20228e-19)
(1.03759 0.0507715 0)
(1.03123 0.0407592 -4.5156e-20)
(1.0258 0.0257705 0)
(1.0223 0.0216831 0)
(1.03743 0.00781351 0)
(1.03265 0.00846715 0)
(1.0328 0.0249689 9.3968e-20)
(1.03527 0.0181249 -2.10314e-19)
(1.03413 0.0294683 -9.48748e-20)
(1.03333 0.0289983 -1.10147e-19)
(1.0338 0.05717 1.98818e-19)
(1.06589 0.0521259 0)
(1.06187 0.0920856 0)
(-0.0179659 1.81864 -1.82459e-20)
(-0.0171416 1.80632 -1.60272e-21)
(-0.019187 1.80703 0)
(-0.0128371 1.81994 1.94229e-20)
(-0.0114097 1.81491 2.85859e-21)
(-0.011775 1.8188 -2.95913e-21)
(-0.0139637 1.84715 3.60192e-20)
(-0.0163149 1.83505 -2.47898e-21)
(-0.0189142 1.83733 1.3888e-20)
(-0.00777289 1.8361 -1.86488e-20)
(-0.00849717 1.83827 -3.01884e-21)
(-0.0255481 1.79994 4.04789e-22)
(-0.023835 1.80207 2.12887e-20)
(0.524709 1.32325 -4.41269e-19)
(0.535598 1.36424 -4.80162e-19)
(0.649711 1.39215 -6.05078e-19)
(0.523325 1.43587 -3.2567e-19)
(0.53817 1.43323 0)
(0.614145 2.40063 1.31306e-19)
(0.70815 2.35518 2.40467e-19)
(0.425146 2.5429 1.01672e-19)
(0.418169 2.6288 -1.5008e-19)
(0.554094 2.56709 2.8198e-19)
(0.527546 2.463 0)
(0.533863 2.46846 -3.62754e-19)
(0.113613 2.63483 6.77981e-19)
(0.29504 2.63455 -2.78125e-20)
(0.220109 2.63 -9.53171e-19)
(0.92135 2.35495 1.90215e-19)
(0.825464 2.32975 0)
(1.01079 -4.53387e-05 9.95539e-21)
(1.01449 -0.00521465 -8.01791e-21)
(1.01624 -0.00378977 -1.45152e-19)
(1.01374 -0.00197996 1.46047e-19)
(1.01302 0.000779598 0)
(0.643974 1.25708 0)
(0.644787 1.15248 0)
(0.739993 1.08048 0)
(0.635692 1.10752 0)
(1.17518 2.63628 4.86713e-20)
(1.05077 2.36334 0)
(0.82574 2.28443 -2.22653e-21)
(0.807733 2.48533 0)
(0.895062 2.57728 -4.9216e-21)
(0.926714 2.53936 0)
(0.838363 0.132987 0)
(0.807838 0.14441 8.42939e-20)
(0.916148 0.124441 4.3051e-19)
(0.862087 0.118339 -1.7337e-19)
(0.856281 0.0737125 -5.18841e-19)
(1.02442 0.210967 -2.49311e-19)
(0.957591 0.275436 -1.51235e-20)
(0.884489 0.271558 3.89537e-19)
(0.962197 0.206594 2.92418e-19)
(0.932743 0.159993 -5.40106e-19)
(0.904755 0.175105 6.97142e-20)
(0.919829 0.23996 -1.37564e-19)
(0.901737 0.194178 0)
(0.96863 0.160511 -2.58228e-19)
(1.00056 0.159312 0)
(0.998839 0.191883 0)
(1.05787 0.100789 8.44273e-20)
(1.02005 0.148025 -1.34905e-20)
(1.0166 0.211768 -1.2933e-19)
(1.04898 0.17897 0)
(1.01534 0.0240404 2.23881e-19)
(1.02682 0.0431196 2.64274e-19)
(1.023 0.027497 -2.21789e-19)
(1.0188 0.0478414 -1.78179e-19)
(1.00326 0.0486082 -2.97074e-19)
(0.976131 0.125494 0)
(0.984062 0.0773859 0)
(0.96917 0.0467295 -2.06944e-19)
(0.932648 0.055757 8.64254e-20)
(1.00083 0.0796041 2.52934e-19)
(1.02245 0.101373 -2.56665e-19)
(1.02856 0.122335 2.33746e-19)
(0.992183 0.121874 0)
(1.03346 0.0905946 0)
(1.01989 0.0774223 -1.07698e-19)
(1.01714 0.0792772 -2.01912e-19)
(0.591136 1.0652 -1.03708e-19)
(0.643747 1.44205 2.07033e-19)
(1.16405 2.7652 1.09757e-19)
(1.22421 3.09575 -7.07184e-20)
(1.24227 2.73573 5.48543e-19)
(1.27639 2.71582 -3.35164e-19)
(1.19865 2.34767 -5.76937e-21)
(1.21052 3.00092 1.96963e-19)
(1.2268 2.96873 -2.22603e-19)
(1.21358 3.24782 -2.67616e-19)
(1.37476 2.97769 3.70519e-19)
(1.36777 2.893 0)
(0.501288 0.852188 -1.22169e-20)
(0.161486 1.30049 3.56855e-19)
(0.523508 0.546477 3.53452e-19)
(0.351917 0.318652 3.84399e-19)
(0.566149 0.446618 4.09759e-19)
(0.54399 0.504364 -6.48792e-19)
(0.543973 0.524634 5.31424e-19)
(0.517316 0.4837 -2.12199e-19)
(0.481414 0.427468 4.92569e-19)
(0.771222 0.260121 5.72246e-19)
(0.739416 0.297275 0)
(0.732411 0.247556 1.11933e-20)
(0.699752 0.517952 1.91821e-19)
(0.684214 0.485122 -7.06584e-19)
(0.611218 0.508098 1.9983e-20)
(0.633527 0.480488 0)
(0.626538 0.737575 1.49012e-19)
(0.776746 0.761221 5.55801e-20)
(0.709903 0.850756 -7.36191e-20)
(0.820363 0.790506 -1.93802e-20)
(0.865446 0.8334 1.37584e-20)
(0.872899 0.836629 -1.40896e-20)
(0.78049 0.62946 -2.31038e-19)
(0.866641 0.684855 1.80087e-20)
(0.930172 0.697213 0)
(0.919691 0.673186 -1.80869e-20)
(0.980903 0.309569 6.35362e-20)
(1.07537 0.278857 1.10029e-20)
(1.00914 0.25513 1.01834e-19)
(0.961797 0.337628 -1.45809e-19)
(0.997685 0.398668 0)
(1.05204 0.394188 0)
(0.883759 0.32871 3.1226e-21)
(0.828035 0.272498 0)
(0.833247 0.269973 2.00373e-19)
(0.883962 0.275697 -8.19495e-21)
(0.893654 0.398287 7.78055e-19)
(0.839737 0.459258 2.0025e-19)
(0.851602 0.424578 -2.49754e-19)
(0.798168 0.413552 -2.67647e-19)
(0.783307 0.409712 1.83557e-19)
(0.778609 0.401394 -1.79346e-19)
(1.02526 -0.012754 2.37886e-19)
(1.0221 -0.00773834 0)
(1.01952 -0.00592413 1.56571e-19)
(1.02401 -0.0106898 -2.42611e-21)
(1.02907 -0.000769088 1.71291e-19)
(1.02429 0.0111401 -3.62786e-19)
(1.02436 0.0143823 0)
(1.02184 0.0130881 -7.58961e-20)
(1.01761 0.00601259 1.88508e-19)
(1.01623 0.00985043 -9.58662e-20)
(1.02038 0.0105704 7.14759e-20)
(-0.109408 1.60331 0)
(-0.184438 1.67378 0)
(-0.157048 1.49113 0)
(-0.0982211 1.52591 0)
(-0.331419 1.58259 -5.116e-19)
(-0.287745 1.40251 1.67196e-19)
(-0.317974 1.85719 1.52209e-19)
(-0.362338 1.62952 -2.26461e-19)
(-0.271758 1.73518 5.51747e-20)
(-0.286693 1.7231 -4.27962e-20)
(-0.304645 1.55535 9.23573e-20)
(-0.287019 1.5608 -2.10707e-19)
(-0.238191 1.586 1.51287e-20)
(-0.234289 1.642 -5.98715e-21)
(-0.264701 2.27213 -9.33731e-22)
(-0.261609 2.3853 0)
(-0.315264 2.2967 -9.46579e-20)
(-0.371863 1.97712 -1.15482e-19)
(0.229594 2.22721 1.09629e-19)
(0.157308 2.62884 0)
(0.203832 2.55393 -5.0457e-20)
(0.303017 2.55387 3.48528e-20)
(0.00127471 2.29158 3.95789e-19)
(-0.154748 2.31139 -1.92239e-19)
(-0.129396 2.57165 0)
(-0.192232 1.92315 -2.39953e-20)
(-0.131027 1.91872 -1.06224e-19)
(-0.148466 1.89007 0)
(-0.139834 2.01288 -3.86774e-21)
(-0.211924 2.01747 2.21265e-20)
(-0.075114 1.76871 4.37582e-21)
(-0.0480206 1.77326 -6.43558e-20)
(-0.0455749 1.78661 1.82637e-20)
(-0.075856 1.78908 2.18337e-20)
(-0.105951 1.7851 0)
(-0.0379776 1.78736 0)
(-0.0245048 1.78186 2.27657e-20)
(-0.028792 1.79331 -7.17733e-21)
(-0.0309444 1.79078 0)
(-0.0230742 1.77156 1.7074e-20)
(-0.0207167 1.77116 -3.39247e-20)
(1.03368 0.0154324 0)
(1.03801 0.0166918 -2.3327e-20)
(1.03913 0.0194958 -1.67847e-19)
(1.03713 0.0203658 0)
(1.03671 0.021996 0)
(1.04131 0.0099976 -5.65547e-21)
(1.03968 0.00862301 2.82418e-19)
(1.03769 0.0105041 3.39387e-19)
(1.03357 0.00943744 0)
(1.02797 0.00682989 0)
(1.03415 0.0166075 1.71306e-19)
(1.02647 0.010632 0)
(1.02751 0.00857224 0)
(-0.0227826 1.82231 0)
(-0.024912 1.80246 2.17714e-21)
(-0.0231172 1.81444 1.1587e-20)
(-0.0278418 1.79584 0)
(-0.0265274 1.80431 1.45758e-20)
(-0.0264577 1.80105 -6.90745e-21)
(-0.0284033 1.79664 0)
(0.440066 1.67051 0)
(0.540496 1.34262 7.20567e-19)
(0.495876 1.36381 0)
(0.52244 1.36321 -4.95076e-19)
(0.519077 1.38829 0)
(0.534785 1.38063 4.08996e-19)
(1.019 2.70738 -3.83931e-21)
(0.939638 2.39155 -2.52832e-19)
(0.864593 2.12805 2.93436e-19)
(0.841597 2.32264 1.13029e-19)
(0.831066 2.51122 0)
(0.881852 2.52113 0)
(0.891343 2.3476 0)
(0.895526 2.30526 -4.15758e-19)
(0.718532 2.4762 -7.18298e-20)
(0.79875 2.48378 -2.52692e-20)
(0.791104 2.45993 2.00796e-20)
(0.693528 2.3437 0)
(0.784725 2.33047 0)
(0.750414 2.34214 -2.26478e-19)
(0.762609 2.47558 0)
(0.603417 1.07491 0)
(0.477711 0.924458 -8.87003e-21)
(0.523053 0.95537 -1.38129e-21)
(0.519439 1.04349 0)
(0.512824 0.998042 1.73792e-20)
(0.728751 0.876713 1.49129e-20)
(0.762889 1.00884 0)
(0.732054 0.971039 -6.39673e-20)
(0.60893 1.01336 0)
(0.606036 0.935126 0)
(1.15594 2.7902 5.74872e-20)
(1.13934 2.85305 1.34425e-19)
(0.938701 2.38922 -3.00496e-19)
(0.909527 2.36069 3.55563e-20)
(1.11559 2.76099 0)
(1.06206 2.73332 -4.91032e-20)
(1.06894 2.4944 -6.94267e-20)
(0.951509 2.2164 -2.78714e-20)
(0.469311 1.40359 0)
(0.480979 1.04847 9.14215e-20)
(0.549839 1.13283 0)
(0.846223 0.217768 0)
(0.813318 0.165289 0)
(0.773912 0.183751 0)
(0.831609 0.227822 -3.15566e-19)
(0.781957 0.231814 1.95258e-19)
(0.934922 0.053085 -1.74736e-19)
(0.940901 0.101207 0)
(0.92644 0.108475 8.04635e-20)
(0.889425 0.0816988 3.30198e-19)
(0.886078 0.0535582 -2.03393e-19)
(1.16228 3.37274 -9.82937e-19)
(1.20925 3.29242 0)
(1.16254 3.40055 -1.95102e-18)
(0.649016 3.56297 1.67107e-18)
(0.872691 3.13333 3.8828e-19)
(0.479574 0.874908 2.15671e-19)
(0.424928 0.86031 0)
(0.343613 0.562217 -8.0655e-20)
(0.407448 0.690286 -3.69448e-19)
(0.519638 0.540847 -1.1031e-19)
(0.501963 0.56538 1.24171e-19)
(0.624259 0.553163 2.67083e-19)
(0.641901 0.564362 0)
(0.599331 0.630499 0)
(0.562313 0.567112 0)
(0.912928 0.580079 -5.08186e-20)
(0.841966 0.514021 -1.93607e-19)
(0.863238 0.551979 9.51068e-20)
(0.909283 0.485202 -1.39971e-19)
(1.00553 0.462726 0)
(1.02295 0.542064 -7.62138e-21)
(0.835554 0.364975 -3.99677e-19)
(0.839244 0.352318 5.9453e-19)
(0.810349 0.363496 3.1335e-19)
(0.788994 0.341413 -3.55645e-19)
(0.829049 0.297321 -2.64052e-19)
(0.787475 0.303422 3.24815e-19)
(1.03458 -0.00057719 -1.80022e-19)
(1.03718 -0.000449332 3.67356e-19)
(1.02819 -0.00957691 2.2319e-19)
(1.03254 -0.00864543 -2.68132e-19)
(1.03675 0.00758084 0)
(1.03796 0.00792651 -4.44502e-19)
(-0.352727 1.95081 2.80917e-20)
(-0.329593 1.87511 0)
(-0.389541 1.96748 -3.4507e-19)
(-0.379118 1.96033 3.56994e-19)
(-0.349367 1.85381 -2.63785e-19)
(-0.374599 1.87155 0)
(-0.0469831 1.82043 0)
(-0.0364916 1.80026 -7.88406e-21)
(-0.0307581 1.8003 7.15257e-21)
(-0.029136 1.80541 2.54319e-21)
(-0.0296461 1.8222 -1.51166e-20)
(-0.0347465 1.82365 -2.489e-20)
(0.468705 1.42734 3.55622e-19)
(0.450567 1.42352 4.09791e-19)
(0.494428 1.34292 4.42476e-19)
(0.473051 1.36826 -2.08693e-20)
(0.63091 1.28409 0)
(0.554785 1.38752 5.22399e-19)
(0.584184 1.36666 -5.20287e-19)
(0.505327 1.31249 -4.18813e-19)
(0.508248 1.26881 0)
(0.539288 1.19264 0)
(0.712492 2.44642 1.03533e-19)
(0.71387 2.45801 6.23838e-19)
(0.743011 2.45998 -4.08669e-19)
(0.684423 2.45298 -1.2047e-19)
(0.639675 2.59593 1.02124e-19)
(0.567632 2.58525 -3.12566e-19)
(0.951263 2.36052 -1.59295e-19)
(0.990662 2.39173 0)
(0.8761 2.12021 -2.11885e-19)
(1.03279 2.71725 0)
(1.02706 2.70149 0)
(0.612905 2.29327 2.40423e-19)
(1.04231 3.17659 4.80549e-19)
(0.913572 3.04864 -4.30257e-19)
(0.288688 0.982473 0)
(0.337731 0.849417 -1.46734e-19)
(0.477196 0.790985 -5.01322e-19)
(0.403211 2.05941 0)
(0.470369 2.79718 -2.707e-19)
(0.432006 2.56677 0)
(0.63322 0.687826 -3.08683e-19)
(0.711716 0.668877 3.99879e-19)
(0.730469 0.613215 2.82487e-19)
(0.614852 0.645717 4.62218e-20)
(0.672837 0.603824 -1.90566e-19)
(1.00341 2.78224 -3.6534e-19)
(1.04143 2.83895 2.84806e-19)
(0.647557 2.198 6.02936e-20)
(0.591319 1.73255 -7.37822e-20)
(0.719547 1.91673 9.30477e-20)
(0.987792 2.4594 -6.71355e-20)
(1.00214 2.46312 -1.66068e-19)
(0.667916 1.88526 -4.7298e-21)
(0.46376 1.33863 -9.07395e-20)
)
;

boundaryField
{
    wall-4
    {
        type            noSlip;
    }
    velocity-inlet-5
    {
        type            fixedValue;
        value           uniform (1 0 0);
    }
    velocity-inlet-6
    {
        type            fixedValue;
        value           uniform (0 3 0);
    }
    pressure-outlet-7
    {
        type            zeroGradient;
    }
    wall-8
    {
        type            noSlip;
    }
    frontAndBackPlanes
    {
        type            empty;
    }
}


// ************************************************************************* //
