/*--------------------------------*- C++ -*----------------------------------*\
| =========                 |                                                 |
| \\      /  F ield         | OpenFOAM: The Open Source CFD Toolbox           |
|  \\    /   O peration     | Version:  2412                                  |
|   \\  /    A nd           | Website:  www.openfoam.com                      |
|    \\/     M anipulation  |                                                 |
\*---------------------------------------------------------------------------*/
FoamFile
{
    version     2.0;
    format      ascii;
    arch        "LSB;label=32;scalar=64";
    class       surfaceScalarField;
    location    "1";
    object      phi;
}
// * * * * * * * * * * * * * * * * * * * * * * * * * * * * * * * * * * * * * //

dimensions      [0 3 -1 0 0 0 0];

oriented        oriented;

internalField   nonuniform List<scalar> 
48
(
5.62643
5.62643
-5.40502
5.40502
6.14235
-6.14235
-8.48427
8.48427
-2.85784
2.76859
0.258585
5.36784
-5.88502
8.6536
-5.36784
-0.0371774
5.35283
0.0521926
5.35283
6.11343
0.0289208
6.11343
-6.11321
-0.0291404
-6.11321
-11.1571
11.128
-0.11745
-11.0397
5.23538
5.23538
-11.0966
0.0569677
-11.0445
-6.05625
-6.05625
2.42802
11.0816
-0.0228256
11.1508
-5.21255
-0.0178357
5.21255
-11.1797
11.1619
6.0129
0.100536
11.2624
)
;

boundaryField
{
    wall-4
    {
        type            calculated;
        value           uniform 0;
    }
    velocity-inlet-5
    {
        type            calculated;
        value           nonuniform List<scalar> 0();
    }
    velocity-inlet-6
    {
        type            calculated;
        value           uniform -5.62643;
    }
    pressure-outlet-7
    {
        type            calculated;
        value           nonuniform List<scalar> 0();
    }
    wall-8
    {
        type            calculated;
        value           nonuniform List<scalar> 0();
    }
    frontAndBackPlanes
    {
        type            empty;
    }
    procBoundary2to1
    {
        type            processor;
        value           nonuniform List<scalar> 4(0.0238859 5.23039 11.2385 6.0129);
    }
}


// ************************************************************************* //
