/*--------------------------------*- C++ -*----------------------------------*\
| =========                 |                                                 |
| \\      /  F ield         | OpenFOAM: The Open Source CFD Toolbox           |
|  \\    /   O peration     | Version:  2412                                  |
|   \\  /    A nd           | Website:  www.openfoam.com                      |
|    \\/     M anipulation  |                                                 |
\*---------------------------------------------------------------------------*/
FoamFile
{
    version     2.0;
    format      ascii;
    arch        "LSB;label=32;scalar=64";
    class       volScalarField;
    location    "2";
    object      p;
}
// * * * * * * * * * * * * * * * * * * * * * * * * * * * * * * * * * * * * * //

dimensions      [0 2 -2 0 0 0 0];

internalField   nonuniform List<scalar> 
38
(
0.0801188
0.0835248
0.724317
0.103972
0.118126
0.0532408
0.0452791
-0.0400549
0.0269068
0.0658885
0.0481792
0.720421
0.709635
-0.00348338
0.000862268
-0.146512
-0.291812
-0.192168
0.0477108
0.0404635
0.0631
-0.298927
0.732317
-0.0684873
0.141115
-0.286518
-0.3507
-0.166104
-0.0589854
-0.186666
0.0570877
-0.439247
0.155369
-0.0447278
0.0237621
0.0527224
0.0436452
-0.0674916
)
;

boundaryField
{
    wall-4
    {
        type            zeroGradient;
    }
    velocity-inlet-5
    {
        type            zeroGradient;
    }
    velocity-inlet-6
    {
        type            zeroGradient;
    }
    pressure-outlet-7
    {
        type            fixedValue;
        value           nonuniform List<scalar> 0();
    }
    wall-8
    {
        type            zeroGradient;
    }
    frontAndBackPlanes
    {
        type            empty;
    }
    procBoundary1to0
    {
        type            processor;
        value           nonuniform List<scalar> 2(0.721615 0.728895);
    }
    procBoundary1to2
    {
        type            processor;
        value           nonuniform List<scalar> 4(0.0577368 0.120037 0.0577368 0.0580418);
    }
    procBoundary1to4
    {
        type            processor;
        value           nonuniform List<scalar> 2(0.72785 0.728705);
    }
    procBoundary1to7
    {
        type            processor;
        value           uniform 0.0861897;
    }
    procBoundary1to20
    {
        type            processor;
        value           nonuniform List<scalar> 3(-0.374937 -0.43528 -0.607478);
    }
}


// ************************************************************************* //
