/*--------------------------------*- C++ -*----------------------------------*\
| =========                 |                                                 |
| \\      /  F ield         | OpenFOAM: The Open Source CFD Toolbox           |
|  \\    /   O peration     | Version:  2412                                  |
|   \\  /    A nd           | Website:  www.openfoam.com                      |
|    \\/     M anipulation  |                                                 |
\*---------------------------------------------------------------------------*/
FoamFile
{
    version     2.0;
    format      ascii;
    arch        "LSB;label=32;scalar=64";
    class       surfaceScalarField;
    location    "2";
    object      phi;
}
// * * * * * * * * * * * * * * * * * * * * * * * * * * * * * * * * * * * * * //

dimensions      [0 3 -1 0 0 0 0];

oriented        oriented;

internalField   nonuniform List<scalar> 
46
(
-5.14338
5.14338
-5.05635
5.05635
3.1903
-5.18293
5.11929
0.02409
5.11929
-5.52635
5.52635
5.10417
0.0151204
-5.10417
0.0478255
3.20801
-0.0177065
-5.752
0.225641
-5.752
5.23452
0.291837
-5.23452
0.364528
-11.4494
-0.184987
11.6344
7.1097
-6.74517
-0.420122
5.88981
-5.46969
4.63622
-1.80439
7.6942
5.79366
-5.50182
0.951508
-6.4212
-6.37337
-5.54805
-5.49662
5.72226
6.13781
6.15293
-0.220437
)
;

boundaryField
{
    wall-4
    {
        type            calculated;
        value           uniform 0;
    }
    velocity-inlet-5
    {
        type            calculated;
        value           nonuniform List<scalar> 0();
    }
    velocity-inlet-6
    {
        type            calculated;
        value           nonuniform List<scalar> 0();
    }
    pressure-outlet-7
    {
        type            calculated;
        value           nonuniform List<scalar> 0();
    }
    wall-8
    {
        type            calculated;
        value           nonuniform List<scalar> 0();
    }
    frontAndBackPlanes
    {
        type            empty;
    }
    procBoundary1to0
    {
        type            processor;
        value           nonuniform List<scalar> 2(3.20801 6.31595);
    }
    procBoundary1to2
    {
        type            processor;
        value           nonuniform List<scalar> 4(0.0395497 -5.18293 -11.4254 -5.93698);
    }
    procBoundary1to4
    {
        type            processor;
        value           nonuniform List<scalar> 2(-3.1903 -6.33366);
    }
    procBoundary1to7
    {
        type            processor;
        value           uniform -0.911829;
    }
    procBoundary1to20
    {
        type            processor;
        value           nonuniform List<scalar> 3(4.86999 5.3053 13.2423);
    }
}


// ************************************************************************* //
