/*--------------------------------*- C++ -*----------------------------------*\
| =========                 |                                                 |
| \\      /  F ield         | OpenFOAM: The Open Source CFD Toolbox           |
|  \\    /   O peration     | Version:  2412                                  |
|   \\  /    A nd           | Website:  www.openfoam.com                      |
|    \\/     M anipulation  |                                                 |
\*---------------------------------------------------------------------------*/
FoamFile
{
    version     2.0;
    format      ascii;
    arch        "LSB;label=32;scalar=64";
    class       volScalarField;
    location    "35";
    object      p;
}
// * * * * * * * * * * * * * * * * * * * * * * * * * * * * * * * * * * * * * //

dimensions      [0 2 -2 0 0 0 0];

internalField   nonuniform List<scalar> 
918
(
0.621906
1.27353
0.00748248
0.621222
0.014964
1.24059
-0.436382
0.789085
0.602041
-0.0263501
0.0361446
0.59686
1.10114
0.867288
-1.06277
0.0930264
0.73993
-0.316223
0.601044
0.0230119
0.823811
0.608635
0.61167
0.602258
0.664044
0.848804
0.981996
0.00645653
-0.0133957
-0.00874566
0.0703015
0.0671508
0.0625918
1.12422
1.17532
1.19801
0.570426
0.396051
-0.296119
-0.366347
-0.359028
-0.482859
0.780629
0.782839
-0.105089
0.790411
0.800035
0.589267
0.601403
0.602289
0.603393
0.602338
0.603736
0.478139
-0.0321118
-0.0648556
-0.00595763
0.00523805
0.138168
0.0379411
0.0349682
0.0381941
0.0432433
0.521577
0.592804
0.589966
0.601877
0.610033
1.21308
1.18499
1.21114
1.12484
1.14134
1.07911
1.05176
0.887896
0.909717
0.853163
0.842078
-1.50093
-2.46384
-0.466536
-0.211847
-0.0154774
0.0883217
0.0967017
0.730959
0.729922
0.741267
0.753561
1.14717
-0.311484
-0.434141
0.601173
0.599968
0.608364
0.609059
0.605071
0.604166
0.029347
0.0346934
0.00340689
0.019706
0.0186437
0.813089
0.811599
0.602802
0.599823
0.617312
0.637989
0.629838
0.354343
0.668137
0.680932
0.670219
0.838114
0.832776
0.841233
0.955382
0.91914
1.01923
1.04232
-0.0207274
-0.0288103
0.0739678
0.0714767
0.0880822
0.566378
0.559142
0.585176
0.573779
0.576185
0.311647
0.176608
0.481791
0.507121
-0.206853
-0.268949
-0.370812
-0.389136
-0.501168
0.671158
0.77076
0.770657
-0.125416
-0.0469018
-0.181763
0.0262009
-0.033957
0.579687
0.586592
0.581654
0.597018
0.591528
0.593473
0.605627
0.602703
0.604265
0.541791
0.665634
0.404127
0.370752
-0.176717
-0.0842344
-0.178894
0.0173227
0.0228307
0.14825
0.174816
0.127111
0.116094
0.0280579
0.0349236
0.0314181
0.0498949
0.0478778
0.514727
0.504241
0.533807
0.541012
0.583218
0.584303
0.587454
0.586058
1.00246
1.02476
1.03244
1.00626
-3.46557
-6.26973
0.117674
0.256625
-0.0576565
-0.0415226
-0.0307974
0.0637844
-0.00142445
0.00709631
0.0919451
0.089187
0.0929767
0.0934839
0.715538
0.714724
1.0646
1.06299
1.04781
0.996505
0.589233
0.591358
0.596935
0.59277
0.0453974
0.0358762
0.0444484
0.79992
0.807201
0.80644
0.317735
0.232071
0.403078
0.430491
0.70132
0.685474
0.698775
0.731158
0.768479
1.04975
1.06809
1.06626
1.07477
1.11881
1.13522
1.10059
0.546544
0.556125
0.551305
0.588387
0.586074
0.587019
0.582486
0.583984
0.581748
0.0244403
-0.359322
0.561766
0.578566
0.556075
0.563767
0.749392
0.823434
0.753252
0.762646
0.761848
0.0918664
0.0352059
0.328725
0.293853
0.457262
0.491935
0.471966
0.973662
0.93421
0.984263
0.957473
0.918967
0.944273
-0.311029
-1.82547
-0.936106
0.612306
0.422966
0.511771
0.102371
0.0929958
0.0984463
1.05722
1.13639
0.722099
0.887781
0.897799
0.807793
0.837653
0.892551
0.81864
0.852643
0.887445
0.867987
0.627563
0.575045
0.583774
0.891905
0.947041
0.206132
0.151797
0.107651
0.194744
0.248633
0.223602
1.10151
1.00332
1.07472
0.599571
0.600263
-0.0177298
0.00475021
0.604389
0.604434
0.0670733
0.0858863
0.494095
-0.772573
0.195419
0.592867
0.583145
0.600052
-0.00760751
0.435999
0.0322631
0.134829
0.0933576
0.594286
0.531797
0.49291
-0.00100077
0.079986
0.0314585
-0.138214
0.597244
0.595554
0.599513
0.600502
0.601159
-0.00714726
-0.000704171
-0.0381895
0.0192439
0.0179606
0.0167243
0.564833
0.581946
-0.0913444
0.599629
0.601761
0.601572
0.594727
0.600424
0.598628
0.0791621
0.0758192
0.0725756
0.302549
0.423164
0.741464
0.836659
0.707118
0.480069
0.241294
0.640826
0.706642
0.608864
0.767653
0.763817
0.782882
0.258568
0.111253
0.266791
0.208919
0.590732
0.589376
0.581378
0.578491
0.594904
0.593007
0.597555
0.594503
0.597494
0.598909
0.0300176
0.00831056
-0.00637583
-0.06844
0.39246
0.653177
0.329937
0.361159
0.226172
0.0440492
0.0435839
0.031143
0.0290202
0.0837977
0.077675
0.130815
0.136413
0.113045
0.0922489
0.0787806
0.0751972
0.0683833
0.588059
0.586639
0.592725
0.601438
0.541064
0.544873
0.511248
0.530928
0.517112
0.457839
0.492348
0.467915
0.0486385
0.0340018
0.0274009
0.0763384
0.086462
0.0297647
0.0184237
0.0176574
0.0315971
0.0335683
0.043192
0.0451841
-0.0966344
-0.209239
1.0519
0.989951
0.19288
0.586444
0.592859
0.589649
0.594454
0.597554
0.598397
0.59616
0.592741
0.582519
0.584304
0.580701
0.581357
-0.0295909
-0.166885
0.00735179
-0.0605558
0.205729
0.694737
0.436039
0.37618
0.370364
0.592315
0.991895
0.787448
0.782509
0.805025
-0.276921
0.119838
-0.209794
0.408833
0.231015
0.73884
0.789759
0.812349
0.759297
0.710699
-0.0458035
0.614329
0.0186784
0.0641892
0.257411
0.148828
0.783602
0.747163
0.752871
0.770611
0.789877
0.752686
0.733069
0.728302
0.766386
0.770226
0.568231
0.335649
0.2909
0.251863
0.730592
0.609013
0.66647
0.57878
0.585652
0.588451
0.587019
0.569483
0.576817
0.572525
0.578306
0.581526
0.590647
0.590994
0.586401
0.588584
0.0283727
0.0272154
0.0440965
-0.062871
-0.0514809
-0.111437
0.00595639
0.145079
0.108438
0.302516
0.408872
0.121907
0.00618663
0.0356519
0.0681099
0.247259
0.271905
0.15048
0.244485
0.226262
0.212492
0.31615
0.324634
0.0599069
0.0507426
0.0493714
0.0482137
0.104757
0.174767
0.185315
0.0857177
0.0776465
0.0441183
0.0506564
0.0561818
0.0532685
0.0551471
0.0934256
0.00949441
0.0662003
0.0854592
0.088262
0.0834843
0.0787006
0.581324
0.583272
0.583055
0.590659
0.607274
0.622572
0.582322
0.562839
0.55381
0.556784
0.530431
0.54035
0.536548
0.549345
0.569681
0.578335
0.576511
0.57902
0.5624
0.563769
0.551118
0.554871
0.531111
0.512734
0.5011
0.0240919
0.0219047
0.0323355
0.0320024
0.0443021
0.0456092
0.0915141
0.103843
0.0869245
0.0882223
0.0816216
0.0455891
0.0491502
-0.00481796
0.0734052
-0.112336
-0.144588
-0.213245
0.956135
1.07581
0.880916
0.657071
0.669447
0.908398
0.994387
0.619641
0.802886
0.826399
0.643618
0.907656
0.591271
0.590852
0.588446
0.587934
0.58917
0.059382
0.160168
0.169
0.223363
0.337935
0.451144
0.376781
0.252212
0.385377
0.390096
0.690074
0.705623
0.653582
0.677023
0.67452
0.502496
0.580743
0.635926
0.588259
0.634571
0.657087
0.617762
0.648305
0.593796
0.550088
0.548429
0.495871
0.516713
0.495019
0.476964
0.580793
0.558638
0.569014
0.560043
0.57926
0.604938
0.600663
0.629104
0.640109
0.564141
0.523736
0.533524
0.562242
0.52264
0.535997
0.551707
0.289276
0.188852
0.272766
-0.0193431
0.0616005
0.0464551
-0.000635133
0.0449387
0.330938
-0.367625
-0.340427
-0.973295
0.553838
1.02279
0.73701
0.709252
0.785629
0.764458
0.767176
0.789986
0.796939
0.720112
0.738397
0.741892
0.698784
0.722313
0.745088
0.742702
0.588214
0.462356
0.453809
0.413444
0.287915
0.321702
0.524294
0.446851
0.373008
0.376219
0.538821
0.427404
0.493723
0.532279
0.463869
0.418941
0.622885
0.689412
0.679506
0.654678
0.570593
0.584088
0.609161
0.645251
0.672398
0.704458
0.578123
0.583896
0.585177
0.58265
0.579859
0.582778
0.582869
0.58538
0.586236
0.589142
0.588129
0.0368241
0.0484996
0.0376953
0.0300448
0.0542305
0.0491419
0.0940015
0.0809085
0.0690224
0.0760813
0.0483982
0.0446371
0.0501573
0.0596082
0.169076
0.183424
0.169263
0.129343
0.314893
0.447449
0.516714
0.393777
0.287755
0.312635
0.336125
0.0652845
0.0947187
0.0796404
0.120288
0.110365
0.0582665
0.0473761
0.0505022
0.0585458
0.0708372
0.0511057
0.0596736
0.0634833
0.0568726
0.0509764
0.0430105
0.564901
0.5585
0.559611
0.553879
0.552901
0.566308
0.570667
0.572381
0.577689
0.579637
0.570276
0.575641
0.579175
0.0842287
0.0583729
0.0579788
0.0654098
0.0639958
0.0627777
0.0633503
0.186537
0.112575
0.118068
0.0745897
-0.050585
0.00578248
0.550943
0.548872
0.547684
0.778781
0.629994
0.549461
0.645782
0.751788
0.335659
0.534245
0.367556
0.94759
0.840619
0.986079
0.603894
0.302383
0.456719
0.506958
0.316305
0.388761
0.393684
0.283202
0.314712
0.346471
0.446898
0.325648
0.300085
0.0586049
0.247155
0.362818
0.343963
0.471461
0.534167
0.323003
0.242775
0.197662
0.682117
0.701388
0.721177
0.691227
0.715819
0.640175
0.630764
0.648782
0.656556
0.651691
-0.701783
-0.409848
-1.35382
-0.668998
-0.219847
0.582999
0.546926
0.825091
0.71309
0.777513
0.762876
0.723076
0.689341
0.700823
0.733347
0.432122
0.542818
0.517068
0.523071
0.424909
0.358148
0.657938
0.652077
0.687804
0.711996
0.679747
0.712864
0.575823
0.575458
0.575132
0.571576
0.569969
0.572122
0.131389
0.102037
0.134232
0.117623
0.0959179
0.083655
0.0805043
0.0737128
0.0703305
0.0675601
0.0849412
0.0824932
0.22848
0.170108
0.092627
0.12351
0.063241
-0.00318563
-0.0214319
0.0782012
0.170985
0.161176
0.466282
0.71709
0.53861
0.706845
0.546392
0.601961
0.537796
0.528675
0.557058
0.44158
0.521342
0.282431
-0.219898
-0.128926
0.839968
0.858613
0.640029
0.453799
0.225073
0.414392
0.614683
0.550716
0.58913
0.658131
0.650282
0.0696049
0.137145
0.395531
0.62355
0.293539
0.285013
0.28005
0.453857
0.378821
)
;

boundaryField
{
    wall-4
    {
        type            zeroGradient;
    }
    velocity-inlet-5
    {
        type            zeroGradient;
    }
    velocity-inlet-6
    {
        type            zeroGradient;
    }
    pressure-outlet-7
    {
        type            fixedValue;
        value           uniform 0;
    }
    wall-8
    {
        type            zeroGradient;
    }
    frontAndBackPlanes
    {
        type            empty;
    }
}


// ************************************************************************* //
