/*--------------------------------*- C++ -*----------------------------------*\
| =========                 |                                                 |
| \\      /  F ield         | OpenFOAM: The Open Source CFD Toolbox           |
|  \\    /   O peration     | Version:  2412                                  |
|   \\  /    A nd           | Website:  www.openfoam.com                      |
|    \\/     M anipulation  |                                                 |
\*---------------------------------------------------------------------------*/
FoamFile
{
    version     2.0;
    format      ascii;
    arch        "LSB;label=32;scalar=64";
    class       surfaceScalarField;
    location    "35";
    object      phi;
}
// * * * * * * * * * * * * * * * * * * * * * * * * * * * * * * * * * * * * * //

dimensions      [0 3 -1 0 0 0 0];

oriented        oriented;

internalField   nonuniform List<scalar> 
1300
(
3.75095
5.62643
-3.11347
3.75095
-6.03301
5.62643
-4.4397
4.4397
-0.961382
0.961382
1.87643
1.87452
-2.94348
2.94348
-2.36074
2.36074
-2.55822
2.55822
-5.24649
5.24649
-5.06895
5.06895
4.6676
-4.6676
-5.97928
5.97928
-1.3204
1.3204
-3.81092
3.81092
3.16979
-3.16979
-2.2822
2.2822
-0.254834
0.254834
-0.553525
4.30448
3.19743
3.19743
-2.04388
2.04388
-4.8637
4.8637
6.21821
-6.21821
4.61328
-4.61328
-1.49981
-2.28941
0.83353
-10.5313
-5.19948
-5.19948
-8.44039
8.44039
-2.81396
2.81247
2.94381
-2.94381
-1.7788
1.7788
-4.37926
-0.0604384
-4.37926
4.43016
0.00954002
4.43016
-1.0561
0.0947143
-1.0561
3.91823
-3.91823
0.830372
0.13101
0.830372
3.06479
-3.06479
-1.87705
3.75348
1.8739
-1.87186
6.17634
-1.87909
3.75362
-5.95817
5.95817
-3.16311
0.219626
-3.16311
2.76401
0.179472
2.76401
-6.74456
6.74456
-2.39902
0.0382814
-2.39902
2.37163
-0.0108845
2.37163
2.86773
-2.86773
-2.65776
0.0995395
-2.65776
2.4495
0.10872
2.4495
0.353536
5.27289
-5.97997
8.79244
-5.27289
0.026403
5.20843
0.0380568
5.20843
-5.10604
0.0370853
-5.10604
5.01098
0.057968
5.01098
4.75812
-0.0905193
4.75812
-4.78275
0.115152
-4.78275
-3.74138
-5.03018
-6.20403
0.22475
-6.20403
-1.32081
0.000414958
-1.32081
1.27761
0.0427835
1.27761
-3.60727
3.60727
-4.19953
0.388606
-4.19953
3.1242
0.0455829
3.1242
1.8685
1.88245
5.61945
-5.61945
2.44967
-2.32323
0.0410262
-2.32323
-2.31311
-2.30016
2.31311
-0.0309093
-0.516856
0.262022
-0.516856
3.15928
0.038147
3.15928
2.29156
0.157942
-2.29156
0.247685
3.21461
-3.21461
1.3961
0.647777
1.3961
-5.56612
5.56612
4.95367
0.0573096
-4.95367
0.0899744
6.15693
0.0612782
6.15693
-6.19954
-0.0186681
-6.19954
2.13309
-4.4225
-2.7096
5.65371
0.325569
-5.65371
0.454228
2.91423
0.0295772
2.91423
-2.92091
2.92091
-2.98311
0.0393045
-2.98311
-2.18117
0.402366
-2.18117
1.47706
0.301737
1.47706
-4.2465
-0.132759
-4.2465
-4.34585
0.146319
4.34585
0.084307
1.09309
-1.09309
-1.16742
0.11132
-1.16742
-4.07286
-0.173636
4.07286
-0.154637
-3.79125
-0.126973
-3.79125
-3.0235
0.0403911
3.0235
0.0412866
3.1126
0.0466817
-3.1126
0.0478107
-1.87083
3.75328
-1.88012
3.75403
-5.57535
-0.382823
-5.57535
6.26628
-0.308113
6.26628
3.50437
0.306557
-3.50437
0.341258
2.62585
0.138156
2.62585
-6.71659
-0.0279696
-6.71659
6.71497
0.0295839
6.71497
2.50235
0.123502
-2.50235
0.103328
2.34766
0.0239688
2.34766
2.88255
-0.0148169
2.88255
-2.86548
-0.00225086
-2.86548
2.80051
-2.80051
2.7332
0.0673117
-2.7332
0.075434
-11.133
11.1143
-0.0352731
-11.0977
5.17316
5.17316
4.18711
0.571013
4.18711
-4.99723
0.214479
-4.99723
2.9433
-5.65289
3.96526
-7.70664
5.29067
-15.8219
4.06643
-9.09661
6.54435
-6.54435
6.39406
0.150293
-6.39406
0.190028
-1.34686
0.0260452
-1.34686
-3.00072
-0.606557
-3.00072
4.26081
-0.653537
4.26081
-3.02891
3.02891
-3.07789
0.048982
3.07789
0.0463147
2.35455
-0.00688681
-2.35455
0.0313156
0.678024
0.152348
-0.678024
0.161168
3.4024
-0.187786
3.4024
-3.03602
-0.178592
-3.03602
-1.37034
0.0234866
1.37034
0.0257558
-5.81573
0.249614
-5.81573
-11.1907
0.0929484
-11.1526
-6.10659
-6.10659
2.3338
11.1262
-2.88709
0.021606
2.88709
0.0271417
2.97602
0.0528846
-2.97602
0.0551128
-2.86265
0.0621396
2.86265
0.0582596
-2.5593
0.378135
-2.5593
-1.06826
1.06826
-1.241
0.172745
1.241
0.236061
1.34668
-0.253587
1.34668
1.23482
0.0427927
-1.23482
0.0674038
-3.68069
-0.110567
-3.68069
6.48953
-0.223242
6.48953
-2.93657
-0.0994498
2.93657
-0.0540197
-0.0332862
11.1476
-5.13988
0.0338392
5.13988
-11.2089
11.2428
-3.23363
0.674332
3.23363
0.953472
5.28781
0.278306
-5.28781
0.290578
6.65498
0.0599895
-6.65498
0.110635
-2.51109
-0.489622
-2.51109
-4.99138
-0.583966
4.99138
-0.730573
-11.4756
-0.203455
11.679
-11.4176
6.01919
0.137748
-6.01919
11.3805
-1.00828
-0.0848101
1.00828
0.059973
1.66357
-0.31689
1.66357
3.58013
-0.177729
-3.58013
-0.100559
-6.63385
-0.0827366
6.63385
-0.144325
-2.07288
-0.438212
2.07288
-0.40931
-4.26697
4.30512
1.90936
-2.2694
-2.1531
-4.56957
1.85198
1.9013
4.30165
-10.1408
-5.68115
-9.68655
7.26602
-6.97544
-9.27002
9.1795
7.63643
-7.76341
-5.7853
5.83161
6.48223
-6.44094
1.87864
1.87484
7.89393
-7.6743
-15.6936
15.3108
7.48554
-7.44725
15.8186
-15.8465
-17.8436
17.9036
-5.7187
5.81824
-6.72587
6.72362
-6.94696
6.89294
-3.52374
-4.1829
13.0697
-12.8449
8.02556
-7.98453
-8.51358
8.90218
3.38247
0.922646
3.42916
-1.88229
3.76092
-1.87133
3.7807
2.79387
-6.31761
2.85902
-5.01213
3.69485
4.33071
-3.66394
-0.905627
-5.91912
5.9487
-5.82127
5.87952
8.97508
-9.03552
-1.88519
3.76003
-1.86884
3.77014
-3.42518
-2.36011
3.3796
0.92205
7.89516
5.17453
-8.22073
-1.46582
-7.88275
7.70502
-8.16017
7.98158
-0.441559
5.82033
-5.37877
4.42214
-1.55776
7.37809
5.70826
5.92274
5.86643
-5.58812
1.10901
-6.48778
-6.39781
-2.52844
2.63976
2.45938
-2.32837
5.99017
1.64626
5.83553
-5.5908
-2.1726
-5.70137
3.82115
2.01046
3.87014
4.07674
2.40549
4.11713
3.03084
-3.03577
0.00492142
-3.05634
6.08719
0.724265
-5.41646
-4.49441
4.9393
2.95463
5.11877
-5.47786
-2.19644
-5.1366
-9.57241
-6.1212
-10.1564
10.1283
5.18253
9.82014
-11.9988
11.8545
4.77764
2.70789
4.76676
-4.92859
-2.51866
-4.82526
11.6563
-2.57447
-9.08184
-10.3232
-7.52033
10.2937
5.52491
10.9293
6.97426
11.0399
4.42161
7.23471
-9.94652
2.42618
-3.86783
-1.85088
-3.79239
3.69009
2.12815
3.79881
-4.21308
-2.51278
-4.19148
-4.28699
-2.65997
4.3018
2.42181
-4.40123
-3.75894
4.50068
2.39226
4.63076
-10.3119
4.46585
-8.64875
-9.18141
-3.66353
-8.99138
3.67542
3.03755
-6.71297
-2.64219
8.55994
-4.22923
7.65431
-4.839
-3.14554
-4.80768
-6.80801
-1.70557
-6.66169
-8.89593
8.40631
-9.20716
8.55362
12.6409
-5.70779
-6.9331
-3.96817
-2.47277
3.92036
-0.491205
-3.71096
3.71588
0.0499661
3.83066
4.75331
4.2621
-3.88702
-1.93425
-3.83191
3.83212
2.04741
3.89426
6.75635
2.21873
6.76589
-6.46979
-2.56573
-6.60255
9.07002
-8.66765
2.89237
-2.86888
5.30753
2.67404
-5.11975
-2.76301
6.20869
-3.15989
-3.0488
-12.2087
10.5572
1.65152
-4.83061
-0.408472
-0.153637
-5.49902
-3.771
5.38387
0.53887
11.0961
7.32506
-5.51213
5.76174
6.16688
6.22419
-0.17362
5.83254
-5.1582
5.31674
-2.43053
-2.88621
5.32402
-5.49765
-1.27853
-5.35382
4.07528
0.337877
1.72281
-1.46079
-1.98822
-0.540216
-1.92082
1.47649
0.982895
1.62884
0.961838
1.67792
-2.9558
0.555735
2.40007
-1.99396
-1.77264
-3.69497
-1.0517
4.74666
5.59971
2.10531
-5.49915
-0.202222
2.67826
-2.63547
-0.764484
-2.93048
2.14594
-2.91042
-3.64948
-1.8989
5.54838
-3.37067
-0.461236
3.31779
0.552349
-3.8255
-2.09362
3.7862
0.330934
-3.12479
6.19046
-3.06567
-5.05904
2.52869
3.5585
4.53915
-4.78984
2.44643
2.34341
-1.23135
4.2234
0.895371
4.36155
-6.75739
4.56095
5.7466
3.15558
-6.05316
0.916556
-5.84083
8.45214
-7.27833
-1.17382
4.07094
4.38121
7.14978
5.4911
-5.71871
12.8685
-1.15732
-6.12101
6.99815
-3.84257
4.78364
-8.6262
-10.2747
4.15373
-9.24193
11.0114
-1.76943
-3.62268
-8.37616
12.8646
-1.22074
-11.6439
8.5994
-4.19216
-4.25547
8.44763
-6.76664
6.77413
-1.95674
-4.81739
-10.1412
-5.70534
10.2239
1.63058
-9.82755
12.2537
-2.59284
4.06219
0.704572
4.08616
3.24581
-5.39105
2.14524
3.52083
-5.47757
2.06901
-7.46007
-6.81628
12.2144
-5.39813
-10.4798
-9.57239
-0.907421
2.49702
9.75671
-9.47128
7.37354
2.09774
3.30949
0.58477
-3.3768
-0.415597
0.259074
4.53465
-4.79372
4.05788
4.21583
3.34952
1.18513
3.84008
2.10862
-3.86723
-0.324252
-4.1558
1.49582
-1.73398
-3.66884
5.16466
-4.06311
0.394275
-2.73378
-3.50893
6.24271
-4.58466
3.03942
3.15104
5.08683
-4.91268
1.40375
-2.40096
-2.51172
2.65936
-4.39335
1.96385
3.20081
4.35611
0.597172
6.0609
6.15351
-9.09845
0.4497
11.328
-9.86222
2.50318
8.53675
-9.87673
0.304335
-8.68704
1.3032
-5.53243
-5.40978
5.10794
-6.81351
-3.51827
6.14766
0.618231
-6.23197
-0.429723
-6.04354
-2.85239
-6.48175
-3.0604
-6.14676
-8.77911
-1.65299
-7.12612
6.75332
-6.69846
-3.45791
7.42904
1.12459
-7.40776
7.32295
-7.48874
7.17185
0.0948606
3.62102
4.35696
1.88419
-2.38967
4.27386
-5.09102
7.30976
-8.60169
3.51067
4.05589
-6.62162
-4.5458
5.03374
4.03628
5.33548
8.92747
-10.4397
1.51227
-10.7368
12.0691
-1.33229
-16.5126
5.7758
-7.58518
2.61638
0.275984
2.64243
0.634912
2.45779
-3.0927
-2.23397
-2.20821
-2.35837
-3.45265
5.81103
1.16624
-3.45023
2.28399
-3.50791
4.67415
-0.0799723
-3.37026
5.30196
-2.84417
5.57795
-3.58788
1.99007
3.36451
5.72863
-2.36412
4.37303
-1.69898
1.84263
-4.20675
-1.61002
-2.96744
5.09559
-3.27528
3.66955
-0.30187
3.97142
-4.08266
0.922767
-0.733138
3.48269
3.73037
4.28298
-3.09785
2.97257
-4.67156
-1.23418
-4.07438
-0.873576
-0.305919
-3.75
4.05592
6.02876
-6.33468
-5.2595
9.56338
-4.30388
7.71648
-5.40288
-2.3136
-4.27045
-4.3972
3.89232
1.94022
9.6567
0.20887
-5.61175
-4.94933
-3.99586
3.20909
2.10765
-1.92258
3.5741
2.07621
-0.353404
0.555917
1.07292
1.85669
-1.30077
0.226702
1.62999
-1.23409
1.96459
0.713665
-2.00738
0.0865631
-1.35073
3.49667
1.04934
-2.03223
0.731458
1.05867
-3.4892
4.85849
-2.50087
-2.35762
5.91716
1.1653
-3.66617
4.18852
-3.85064
2.33415
-3.38584
-1.33202
-5.18266
-3.5364
-2.56255
4.84654
-3.24848
5.35379
1.19706
-5.15157
6.34863
-3.59171
1.69282
-3.07987
3.79354
-1.08243
-1.99744
2.82569
2.72269
-2.954
0.0235186
-0.128313
2.33978
-2.46809
-0.570647
-2.56461
-4.57204
4.90298
-2.10731
4.55374
2.16655
-1.91463
6.46837
1.81114
-3.72578
-3.2479
-3.70913
-1.38237
3.15678
-0.568098
-4.25716
-5.38549
4.13366
0.227891
-6.86628
7.67078
-0.804501
-3.91165
-0.649295
4.72023
-5.95152
0.473943
-3.8825
3.78828
4.68365
4.91154
-11.4371
-0.206752
-6.25458
1.13931
-7.39389
5.52052
-3.58204
7.73577
-10.411
6.95314
-9.28646
6.56195
-0.831941
6.2588
-4.11355
2.82305
-8.52839
-6.89781
5.44037
-2.73247
6.14494
-3.12232
9.26726
-5.71516
5.20377
4.06348
-0.794844
-4.01284
-5.27021
4.47536
-0.0664314
4.01972
4.97361
-2.86499
4.64936
2.25678
-4.65773
-2.13657
-6.49811
1.84038
-3.34707
-1.91679
3.75717
3.17004
3.75481
1.24545
-3.33921
7.30095
-8.20837
-1.90282
-3.50695
5.3217
-0.846343
3.35626
-6.86321
-2.17617
4.85859
-0.79473
-4.06386
0.8492
-4.36747
1.65462
-6.02208
5.15889
-5.58861
2.21241
-9.79759
-5.19535
-5.13538
-2.24991
-5.23883
-7.60634
5.35643
-1.83054
5.49242
-8.57626
7.78153
-3.49287
8.8493
-5.43551
-1.04625
5.84482
1.32703
10.1763
0.162247
-4.70805
-1.87187
3.9372
-2.06533
1.33722
-3.58775
0.349444
2.48153
3.43563
-6.55681
-0.0648066
-4.77286
-3.92109
7.95737
5.64229
11.671
1.23132
9.14914
-1.19177
10.3805
4.14371
4.37977
-3.03177
4.54404
1.02414
4.53481
-0.836843
2.82691
1.80559
1.806
0.829471
2.31875
1.41163
3.24151
0.148808
-2.05941
4.63795
-8.63381
-0.973799
-8.0628
1.1167
5.727
-4.6103
3.09868
-0.991033
1.03335
0.0897671
-1.60811
1.51835
-2.79644
-1.96152
-0.331528
-1.62661
2.35806
1.87006
-2.02653
-0.769906
0.330541
-3.86694
3.0553
-3.03179
-0.309091
6.03954
-2.75609
0.287999
-1.06327
-2.27661
-2.81683
2.73026
6.17737
0.291001
3.11171
5.19398
3.10036
0.235367
3.90537
-5.6748
-3.5547
-5.88155
-0.361033
4.3592
1.79051
7.96619
5.854
5.00765
-1.85556
-10.0639
6.57816
-2.03412
5.24587
-1.18201
-4.84007
4.98672
2.32304
-5.60495
0.0163385
-4.82373
-6.85785
-0.521738
8.30326
-9.6546
8.60835
5.75596
1.37016
-4.40724
-0.728138
4.2345
0.145276
10.5257
-1.12912
-6.81616
7.94528
-4.59788
3.62408
0.833279
2.74082
2.35162
1.36059
-5.45557
-10.0659
-1.92145
-1.56774
-4.27908
0.467585
-2.33765
6.25014
-2.62606
3.93654
5.31923
6.35258
-2.16056
-4.17412
6.46444
-2.5279
3.82467
)
;

boundaryField
{
    wall-4
    {
        type            calculated;
        value           uniform 0;
    }
    velocity-inlet-5
    {
        type            calculated;
        value           uniform -3.75095;
    }
    velocity-inlet-6
    {
        type            calculated;
        value           uniform -5.62643;
    }
    pressure-outlet-7
    {
        type            calculated;
        value           nonuniform List<scalar> 8(3.11347 6.03301 3.78922 9.69774 8.77156 4.84269 6.90855 9.3571);
    }
    wall-8
    {
        type            calculated;
        value           uniform 0;
    }
    frontAndBackPlanes
    {
        type            empty;
    }
}


// ************************************************************************* //
