/*--------------------------------*- C++ -*----------------------------------*\
| =========                 |                                                 |
| \\      /  F ield         | OpenFOAM: The Open Source CFD Toolbox           |
|  \\    /   O peration     | Version:  2412                                  |
|   \\  /    A nd           | Website:  www.openfoam.com                      |
|    \\/     M anipulation  |                                                 |
\*---------------------------------------------------------------------------*/
FoamFile
{
    version     2.0;
    format      ascii;
    arch        "LSB;label=32;scalar=64";
    class       volVectorField;
    location    "35";
    object      U;
}
// * * * * * * * * * * * * * * * * * * * * * * * * * * * * * * * * * * * * * //

dimensions      [0 1 -1 0 0 0 0];

internalField   nonuniform List<vector> 
918
(
(0.985165 -0.000498681 0)
(0.005012 2.96625 0)
(-0.030962 0.819589 0)
(0.979702 0.00215025 0)
(-0.0932723 1.62345 -5.96408e-20)
(-0.00704252 2.94879 -2.66049e-18)
(0.831429 1.17483 3.83906e-19)
(0.318175 0.145265 -1.75188e-20)
(0.999908 -0.000287826 0)
(0.0492574 0.834694 0)
(0.000850862 0.643408 0)
(0.734535 -0.0118618 0)
(0.011092 2.9304 0)
(0.00225557 2.79498 0)
(-0.0176629 3.15713 7.20388e-19)
(-0.0169172 1.82793 -8.52216e-20)
(0.391387 0.0451837 1.155e-18)
(0.190426 1.18486 2.51744e-19)
(0.96279 0.00502375 0)
(-0.00472662 0.631126 0)
(0.0756251 0.190732 -8.25177e-19)
(1.00198 -0.00498249 0)
(1.00022 -0.0097964 0)
(0.975719 -0.00644345 0)
(0.5858 -0.037383 0)
(0.0161209 2.63848 0)
(-0.0149727 2.91007 9.92194e-19)
(-0.028251 0.812069 0)
(-0.10186 1.01089 0)
(-0.0272063 0.802218 0)
(-0.198397 2.56809 0)
(-0.139102 1.79529 4.72195e-20)
(-0.0853525 1.62573 0)
(-0.0206167 2.9876 -9.62076e-23)
(-0.0166922 3.0053 2.0678e-18)
(0.00210046 3.00019 0)
(0.870558 -0.00948372 0)
(0.40324 0.936517 2.20439e-19)
(0.812303 1.1912 -3.80258e-19)
(0.960426 1.03004 4.47758e-19)
(0.681927 1.28433 -8.80775e-20)
(0.679419 1.27013 5.15049e-19)
(0.359783 0.231621 1.7091e-20)
(0.333445 0.115326 0)
(1.13599 0.553383 0)
(0.32506 0.228909 7.81202e-20)
(0.287047 0.154747 -8.10678e-20)
(0.919709 -0.00745609 0)
(1.00027 0.000138597 0)
(0.999909 0.000328286 0)
(1.00363 -0.00777756 0)
(1.00096 -0.000929833 0)
(1.00017 2.82896e-05 0)
(0.0800532 1.80061 -9.15855e-19)
(0.0332059 1.00127 0)
(0.0870543 0.900381 0)
(0.017093 0.956363 0)
(0.035602 0.77058 0)
(0.0227725 1.99942 0)
(0.00315741 0.810224 0)
(0.0236141 0.655737 0)
(-0.00519646 0.809073 0)
(-0.00674693 0.648943 0)
(0.836798 -0.0154728 0)
(0.850064 0.0278254 0)
(0.768137 -0.00203207 0)
(0.822874 0.0366999 0)
(0.702898 -0.0171688 0)
(0.0146901 3.0004 9.88916e-19)
(0.0115018 3.00798 0)
(0.00612085 3.00279 0)
(0.0135309 2.99734 1.12615e-23)
(0.00798218 2.95848 -1.46977e-18)
(0.0144899 2.98208 0)
(0.0108341 2.9036 0)
(0.024574 2.93085 2.31038e-24)
(0.00451466 2.82492 0)
(0.0304853 2.9162 0)
(-0.00539434 2.74462 0)
(0.30838 3.55391 0)
(-0.131915 3.63542 0)
(0.139615 3.24759 6.70404e-19)
(-0.0125037 2.98292 0)
(-0.182965 2.34103 0)
(-0.0405604 2.0526 8.40419e-20)
(0.00811024 1.89247 -8.66385e-20)
(0.480391 0.146642 -3.99656e-19)
(0.3891 0.025393 -3.85817e-19)
(0.465481 0.169676 -1.20361e-18)
(0.376178 0.0652745 -7.93529e-19)
(0.218226 0.942792 0)
(0.272514 1.32478 -3.20071e-19)
(0.377005 1.26984 5.4005e-19)
(0.987498 0.00856657 0)
(0.941938 0.00587873 0)
(1.0003 0.000577971 0)
(1.00286 0.0093045 0)
(1.00302 0.00846494 -3.0733e-18)
(0.991915 0.00969379 2.3209e-18)
(0.000921791 0.784848 0)
(-0.00893284 0.634735 0)
(0.012511 0.844241 0)
(-0.0199742 0.787786 0)
(0.0100473 0.627997 0)
(0.119021 0.197304 2.55128e-19)
(0.175186 0.175073 0)
(0.993535 -0.00838333 0)
(0.954401 -0.00652553 0)
(0.774901 0.0454711 0)
(0.712128 0.0557065 0)
(0.661263 -0.0302154 0)
(0.9534 -0.0106023 0)
(0.628941 0.0701974 0)
(0.456767 -0.0178851 1.68522e-18)
(-0.0368943 2.86309 7.71407e-19)
(0.0420013 2.90897 0)
(0.0544815 2.88509 0)
(-0.004759 2.69906 0)
(-0.0131638 2.9853 9.44744e-19)
(-0.0179654 2.89527 0)
(-0.0153357 2.98811 -2.91828e-18)
(-0.0133669 2.92521 9.97161e-19)
(-0.0471286 1.17568 0)
(-0.0964294 1.30654 0)
(-0.0549694 2.02262 -2.19049e-21)
(-0.0888124 1.9236 0)
(-0.0682672 1.73826 0)
(0.937766 -0.00769036 0)
(0.856088 -0.00936461 0)
(0.863543 0.0065676 0)
(0.949055 -0.0079757 0)
(0.883534 -0.00818821 0)
(0.515406 1.13043 -2.76303e-19)
(0.564981 1.18235 0)
(0.367181 0.880385 3.92889e-20)
(0.309517 0.739819 0)
(0.91968 1.0682 -1.18667e-19)
(1.03058 0.870122 2.32671e-19)
(0.372223 1.37563 0)
(0.535597 1.34585 0)
(0.544908 1.29996 0)
(0.112375 0.182531 -3.29347e-19)
(0.393741 0.21761 0)
(0.360257 0.108673 2.2369e-19)
(1.00075 0.924792 0)
(1.06495 0.772549 0)
(1.09013 0.7135 -1.5963e-19)
(1.11619 0.61413 0)
(1.16059 0.39785 5.46159e-20)
(0.957422 -0.00885457 0)
(0.96232 -0.0101315 0)
(0.901406 -0.00795654 0)
(0.984163 -0.0091808 0)
(0.974617 -0.00941156 0)
(0.937027 -0.0063774 0)
(1.00019 0.00233893 0)
(1.00091 0.00139099 0)
(0.999913 0.000852813 0)
(0.0334427 2.0587 5.01769e-19)
(0.121201 1.74236 0)
(0.012863 2.17352 3.81497e-19)
(0.0556002 1.86004 -6.9183e-19)
(0.104905 1.18918 -2.04869e-19)
(0.0463637 1.07644 0)
(0.141607 1.04643 0)
(0.0109286 0.909256 0)
(0.0190229 0.729028 0)
(-0.00457195 2.21127 -1.96765e-21)
(0.0308058 1.98874 0)
(-0.00617442 2.18631 -1.0592e-19)
(0.0285263 2.00049 -1.0758e-20)
(0.0121962 0.868589 0)
(0.0118706 0.833836 0)
(0.0245442 0.692344 0)
(-0.00296507 0.806827 0)
(-0.0181925 0.639676 0)
(0.93457 0.00884056 0)
(0.843759 -0.0146886 0)
(0.924943 -0.000447882 0)
(0.8393 -0.012614 0)
(0.812594 0.00212161 0)
(0.902439 0.0193069 0)
(0.879579 0.0236348 0)
(0.789473 0.000360967 0)
(0.0057883 3.06488 -9.33402e-21)
(0.0166622 3.05782 0)
(0.0147219 2.96907 0)
(0.00864285 2.87623 0)
(0.925457 3.97036 0)
(1.24016 3.30245 9.20222e-19)
(0.0703033 3.07494 0)
(-0.0280297 2.90581 0)
(0.0342949 1.48529 0)
(-0.0604496 2.10551 0)
(-0.127594 1.8449 0)
(-0.14715 2.51236 5.50902e-20)
(-0.148982 2.44763 0)
(-0.199101 2.49623 0)
(0.0201661 1.9761 1.67877e-21)
(-0.0144764 2.10474 7.91422e-20)
(-0.0270618 2.07491 8.82691e-20)
(0.0161753 1.94424 0)
(0.506287 0.120912 5.99518e-19)
(0.405458 0.00471834 -5.88993e-19)
(0.260917 1.56966 0)
(0.266929 0.718921 -3.32643e-19)
(0.177677 1.65421 -1.12269e-18)
(0.227283 1.18708 1.12561e-18)
(0.902292 0.00656276 0)
(0.967532 0.0109884 0)
(0.974621 0.0107591 0)
(0.92347 0.00651899 0)
(-0.0134411 0.812818 0)
(-0.00318885 0.801301 0)
(-0.00653948 0.63768 0)
(0.277833 0.225706 7.18975e-19)
(0.228838 0.208742 -8.50347e-19)
(0.240526 0.167731 0)
(1.07515 0.0811241 3.50907e-20)
(1.05618 0.0361281 0)
(0.997267 0.036941 0)
(0.895372 -0.00873762 0)
(0.531181 0.0958312 0)
(0.564659 0.0751014 -2.69665e-18)
(0.425109 -0.00321173 1.0117e-18)
(0.00919107 2.98147 8.12569e-19)
(-0.0322934 2.86645 4.77641e-20)
(0.00364475 3.05021 -1.96805e-20)
(0.0201625 3.04342 6.99133e-19)
(-0.0150206 2.99657 3.26652e-20)
(-0.0129467 2.94946 -1.31334e-22)
(-0.0172542 3.01196 -6.01608e-19)
(0.0148152 3.02394 4.35081e-19)
(0.0073314 3.03674 -6.91356e-19)
(0.932279 -0.00207441 0)
(0.938333 -0.00394594 0)
(0.843841 -0.00871201 0)
(0.956782 0.0116562 0)
(0.943185 0.0128327 0)
(0.881885 0.00619876 0)
(0.918486 0.0159398 0)
(0.926799 0.0145268 0)
(0.838906 0.0043266 0)
(0.71912 1.40989 -9.85635e-21)
(0.752926 1.51936 0)
(0.190637 0.329951 8.07332e-20)
(0.215943 0.654184 6.50832e-19)
(0.258722 0.716875 -3.76027e-19)
(0.266326 0.536863 7.49092e-19)
(0.329369 0.780882 1.72055e-18)
(0.130064 0.219477 3.95787e-19)
(0.440288 0.191526 -8.3062e-19)
(0.417523 0.208136 2.18522e-19)
(0.371444 0.0905305 4.18176e-19)
(1.15021 0.456342 -2.28189e-20)
(1.1611 0.250829 -3.1503e-20)
(0.00214026 2.21245 3.25101e-19)
(0.0547358 1.92373 0)
(0.961907 0.027012 0)
(0.937791 0.0124977 0)
(0.860503 -0.0185967 0)
(0.0111223 3.07425 0)
(0.0197036 2.94412 1.2954e-18)
(0.0164571 2.95629 0)
(0.00634633 2.85065 -1.28481e-18)
(0.00631595 3.0914 3.15747e-19)
(0.00726671 3.08268 0)
(0.786102 1.82237 -1.469e-19)
(1.24786 2.50122 3.6662e-19)
(0.768342 1.96239 -1.19909e-18)
(0.0201761 2.98156 -7.13359e-19)
(0.0360813 3.00212 0)
(-0.0336093 2.87861 0)
(-0.00880352 2.16291 -7.34156e-21)
(-0.0117029 2.13555 -3.47706e-21)
(0.0222999 1.99524 -4.08928e-21)
(0.274408 1.37601 1.08389e-18)
(0.221897 0.504115 -7.43083e-19)
(0.0627347 1.98373 8.4094e-19)
(0.137531 1.8735 -9.88617e-19)
(0.178597 1.48093 9.03471e-20)
(0.00328349 3.11804 -1.99042e-18)
(0.017224 3.11797 2.13144e-18)
(-0.00900854 2.98088 8.77709e-19)
(-0.00310182 2.97739 -8.37976e-19)
(-0.0213912 2.88167 -8.9392e-19)
(0.00871384 3.09886 -2.35431e-18)
(0.00201259 3.10682 2.29661e-18)
(0.272208 0.679874 0)
(0.233855 0.668568 -1.34376e-18)
(0.0976286 0.221771 5.94557e-19)
(0.34547 0.905646 1.17722e-18)
(0.184935 0.262713 -1.81648e-18)
(1.15541 0.16997 9.84043e-20)
(1.16281 0.305268 0)
(1.14186 0.118451 -4.78019e-20)
(-0.00288345 2.21948 -2.64309e-21)
(-0.00341036 2.22224 0)
(0.0392773 1.96424 0)
(0.338004 1.28378 -3.90938e-19)
(0.364434 1.115 -8.42598e-19)
(0.198133 0.357914 1.50375e-18)
(1.00587 -0.0108729 0)
(1.00765 -0.00765609 5.67638e-19)
(0.0290412 1.20869 0)
(0.00110327 1.0686 0)
(1.00222 0.00349594 1.79999e-21)
(1.00364 0.00942147 1.15778e-18)
(-0.120415 2.52191 -7.13785e-20)
(-0.0975961 2.52748 0)
(0.0365476 3.17926 4.90884e-19)
(0.395482 3.49257 0)
(1.13886 0.652426 -9.87276e-20)
(1.01292 0.0130742 -2.13157e-21)
(1.0212 -0.0104402 0)
(1.00168 9.5338e-05 6.2358e-23)
(0.0975708 1.35175 0)
(0.148412 2.58285 0)
(0.0195236 1.30561 0)
(-0.00214429 2.62949 1.04703e-19)
(-0.0251486 2.57902 7.97559e-20)
(1.00311 0.0271899 2.44223e-21)
(1.06147 0.00331786 0)
(1.09419 0.0216793 0)
(-0.0498688 1.9546 0)
(-0.0306072 2.5679 0)
(0.0329033 1.2264 0)
(0.28697 1.46569 -1.02973e-19)
(1.01125 -0.00965759 0)
(1.0094 -0.0149418 0)
(1.00233 0.000683677 7.24726e-19)
(1.00547 -0.00485317 -8.52568e-19)
(1.00118 -0.0010002 0)
(0.102792 1.66514 0)
(0.0709391 1.30721 0)
(0.0194955 1.52091 0)
(0.0267807 1.19858 0)
(0.0373123 1.09993 0)
(0.002717 1.05144 0)
(1.03423 -0.00655719 0)
(1.0208 0.0157151 -9.39911e-22)
(0.796806 1.26296 1.93211e-19)
(1.00229 0.00024601 -7.2456e-19)
(1.00406 0.00523332 8.45341e-19)
(1.00118 0.0020597 0)
(1.01285 0.0102609 7.19774e-19)
(1.00803 0.0082693 -8.70567e-19)
(1.00861 0.0146688 0)
(-0.057106 2.58419 0)
(-0.0855306 2.54968 7.79993e-20)
(-0.0649395 2.56359 -5.90955e-20)
(1.21651 0.254563 7.59926e-19)
(1.15258 0.0781033 0)
(0.0454082 3.07768 -1.04349e-18)
(0.065924 2.85373 -7.55685e-20)
(0.142833 3.19387 1.57766e-18)
(0.137798 3.22271 -2.52632e-19)
(0.136149 3.23539 0)
(0.0201751 3.13759 2.73247e-19)
(0.0771439 3.16095 1.03092e-18)
(0.0700212 3.18687 -5.13999e-19)
(0.0229044 3.12966 0)
(0.654334 0.303156 0)
(0.576085 0.348198 0)
(1.10872 0.684921 2.58987e-19)
(1.10453 0.814036 1.29664e-19)
(1.16738 0.572054 0)
(1.19689 0.51222 0)
(1.01618 0.0132853 -1.34281e-18)
(1.015 0.0142599 -1.54307e-21)
(1.02514 -0.0100423 0)
(1.02317 -0.0119897 0)
(1.00648 0.00258755 0)
(1.0104 0.00365676 0)
(1.00461 0.00183367 0)
(1.00988 0.00613695 0)
(1.00781 0.00600697 0)
(1.0045 0.00458256 0)
(0.087331 1.34834 0)
(0.0791243 1.3228 0)
(0.118543 1.38458 0)
(0.127272 1.39883 0)
(0.146105 2.60693 0)
(0.186967 2.67205 -4.83299e-19)
(0.0994067 2.66442 0)
(0.0883046 2.66681 2.57976e-19)
(0.0389703 2.68617 -2.5635e-19)
(0.0347744 1.31139 0)
(0.000855019 1.23629 0)
(0.0293617 1.32381 0)
(0.0413799 1.27013 0)
(-0.00647433 1.98974 -6.4636e-20)
(-0.0278539 2.6074 6.96469e-20)
(-0.0154481 2.67124 1.09152e-19)
(-0.022534 2.68042 0)
(-0.0313506 2.61112 -1.8699e-19)
(-0.030009 2.60306 -1.15063e-19)
(0.00316037 1.99022 4.94769e-20)
(-0.0203986 2.41346 -9.34018e-20)
(-0.0220687 2.43029 -1.23788e-19)
(1.01183 0.0353019 1.36248e-18)
(1.00815 0.0167782 3.4142e-21)
(1.00448 0.0415395 -1.36882e-18)
(0.982863 0.0218234 1.73894e-18)
(1.06255 0.00698811 0)
(1.04793 -0.00911464 0)
(1.09093 0.0323086 0)
(1.07214 0.0110304 0)
(1.06972 -0.00130445 0)
(1.13494 0.0739797 0)
(1.10693 0.0396622 0)
(1.10924 0.0273595 0)
(-0.139241 2.48321 -7.78744e-21)
(-0.0250962 2.23213 0)
(-0.115858 2.39455 0)
(-0.043896 2.58517 4.20446e-20)
(-0.0341374 2.59596 -2.01981e-21)
(0.0601676 1.7379 2.76285e-20)
(0.0554278 1.62171 -2.88085e-20)
(0.0593155 1.41048 0)
(0.0604936 1.41268 0)
(0.0764035 1.40897 0)
(0.0395777 1.25134 0)
(0.0249047 1.11625 0)
(0.377416 1.48055 1.47598e-19)
(0.415608 1.4866 1.03159e-19)
(0.596512 2.45157 -2.53199e-19)
(0.403658 2.54639 7.52225e-19)
(0.355261 2.07108 9.38892e-20)
(1.02092 -0.00826066 0)
(1.01543 -0.00982779 0)
(1.01487 -0.0155584 0)
(1.00747 -0.0012219 0)
(1.0049 -0.000973305 0)
(1.00776 -0.00477391 0)
(1.00923 -0.00376289 0)
(1.01414 -0.00455049 0)
(1.02148 0.0159389 1.31565e-18)
(1.01815 0.0157783 -1.68732e-18)
(1.02197 0.017898 -1.32493e-18)
(1.01978 0.0165621 1.66192e-18)
(0.764399 1.31095 0)
(0.699174 1.3648 1.61271e-19)
(0.872582 1.20863 2.69832e-20)
(0.91497 1.16316 -3.5894e-20)
(1.15602 2.60803 4.27181e-19)
(0.811028 0.0984523 6.63158e-19)
(1.1539 0.0964305 0)
(1.19664 0.180942 -6.10153e-19)
(1.18069 0.145315 -2.57741e-20)
(1.00534 0.1403 0)
(0.138178 2.96197 6.25925e-19)
(0.115143 2.86784 -1.31549e-18)
(0.0262947 2.37046 8.88265e-19)
(0.0926213 -0.00126757 -4.0059e-19)
(0.340244 3.42155 -1.67517e-19)
(0.194858 3.31414 0)
(0.237397 3.35643 2.18164e-19)
(0.246544 3.03526 -2.01551e-18)
(0.34109 3.1943 0)
(0.00585924 3.12106 5.22351e-20)
(0.0163578 3.12975 -6.11322e-19)
(0.0143296 3.12576 8.99747e-19)
(0.0355926 3.1401 0)
(0.0341414 3.15072 0)
(1.21491 2.60792 0)
(0.530984 0.841077 -5.83048e-19)
(1.03444 0.989211 5.28197e-20)
(0.971589 1.06342 0)
(0.818481 0.963166 -1.47627e-19)
(1.05747 0.877454 2.94591e-20)
(0.369456 0.407659 -1.02957e-18)
(0.700237 0.325844 -2.27831e-20)
(0.672858 0.24451 4.73704e-19)
(0.591683 0.38335 3.49318e-20)
(0.509149 0.359904 -1.40614e-18)
(0.669593 0.342231 0)
(0.702772 0.427295 8.04312e-19)
(0.709789 0.425193 0)
(0.628009 0.369537 0)
(0.604219 0.296401 0)
(0.791522 0.616445 4.8729e-19)
(1.21331 0.277318 -5.74098e-20)
(1.20744 0.416679 0)
(1.21914 0.360511 0)
(0.753771 0.191341 7.06453e-19)
(0.837663 0.536074 -4.41059e-19)
(0.7416 0.51164 -7.82738e-19)
(0.940374 0.422233 -8.73023e-19)
(1.01984 0.0145733 9.05003e-19)
(1.0179 0.014163 -9.09608e-19)
(1.01596 0.0155697 0)
(1.03573 -0.00619633 0)
(1.02949 -0.00867675 -8.55148e-19)
(1.02745 -0.012228 8.46841e-19)
(1.02513 0.00953956 0)
(1.02374 0.0131461 0)
(1.01141 0.00401643 0)
(1.01431 0.00893571 0)
(1.01508 0.00392163 0)
(1.01419 0.0027333 0)
(0.0593499 1.3323 0)
(0.0620722 1.29394 0)
(0.147313 1.35314 -6.8193e-20)
(0.265078 1.46309 4.83197e-20)
(0.155784 1.4337 9.65427e-20)
(0.186122 1.44236 -4.75185e-20)
(0.15986 1.37835 0)
(0.131183 1.58852 -1.47629e-19)
(0.116093 1.55855 0)
(0.354547 2.02496 -1.36473e-19)
(0.348873 2.3579 7.03189e-19)
(0.184228 1.44163 1.28715e-19)
(0.260671 1.37471 -9.99703e-21)
(0.197823 1.3592 -8.10688e-21)
(0.272287 1.31547 -1.78575e-19)
(0.242004 1.57361 1.8312e-19)
(0.261293 1.61542 1.70865e-19)
(0.0293823 2.27648 -6.24987e-20)
(0.0391913 2.67749 0)
(0.063053 2.41373 2.10087e-19)
(0.0561304 2.4356 0)
(0.0694789 2.6797 -2.85366e-19)
(0.0502051 2.70618 0)
(0.0213741 1.40861 -5.42324e-20)
(0.0302123 1.45989 0)
(0.03238 1.3766 0)
(0.0208676 1.38172 6.11922e-20)
(-0.00452536 2.65879 -2.01765e-20)
(0.0267973 2.70417 2.99324e-19)
(0.00811472 2.72702 2.10711e-21)
(-0.00744572 1.83867 6.50641e-20)
(-0.0178714 1.67679 -2.91907e-20)
(0.0124327 1.29548 0)
(0.0165248 1.194 0)
(0.0446102 1.56541 8.13487e-20)
(0.0280418 1.44188 7.56708e-20)
(0.0333819 1.50756 -9.51591e-20)
(0.0367721 1.58948 0)
(-0.0378247 2.29755 -8.14339e-20)
(-0.0608775 2.5431 3.24893e-20)
(-0.0227627 2.45272 -2.24295e-20)
(-0.021263 1.85239 -7.88448e-20)
(-0.037342 2.49631 -2.96914e-20)
(-0.0289642 2.44323 1.31802e-19)
(1.02004 0.0205676 -9.00437e-19)
(1.01635 0.0257705 9.02962e-19)
(1.01525 0.0162138 0)
(1.01281 0.0651421 1.2669e-18)
(0.993102 0.0555509 -1.41515e-18)
(0.955104 0.0430431 1.58054e-18)
(1.01616 0.101695 -1.69416e-19)
(1.04189 -0.00627009 0)
(1.04998 -0.00212147 8.19619e-19)
(1.0382 -0.010206 -8.20229e-19)
(1.06992 0.0400918 -4.90252e-20)
(1.06341 0.0218821 4.22034e-19)
(1.06392 0.0518894 0)
(1.05219 0.0466129 -1.51212e-19)
(1.03309 0.0393368 0)
(1.02628 0.0356086 0)
(1.02775 0.0126596 0)
(1.02445 0.0154927 0)
(1.03924 0.0300888 3.11021e-19)
(1.03941 0.025382 -6.85058e-19)
(1.05025 0.0322157 -3.30636e-19)
(1.04699 0.0325921 -3.63524e-19)
(1.06759 0.0596575 7.14813e-19)
(1.09309 0.0470047 0)
(1.10067 0.0892443 0)
(-0.0619448 2.29442 -3.54479e-20)
(-0.0234106 2.17895 -5.19631e-21)
(-0.0039152 2.12935 0)
(-0.0615565 2.46856 3.78896e-20)
(-0.0803462 2.46131 1.23656e-20)
(-0.0994248 2.4771 -1.91014e-20)
(-0.0317772 2.61472 9.99492e-20)
(-0.0473765 2.5527 -8.08864e-21)
(-0.0325808 2.51281 3.54063e-20)
(-0.0303641 2.6042 -5.27641e-20)
(-0.0325853 2.6077 -8.09034e-23)
(0.0885381 1.5865 2.87224e-21)
(0.0407485 1.74728 6.08425e-20)
(0.366956 1.42021 -4.84978e-20)
(0.365027 1.36369 1.12641e-19)
(0.646239 1.41066 -1.55986e-19)
(0.513599 1.47497 -9.98623e-20)
(0.565641 1.44823 0)
(0.591963 2.42711 2.26802e-19)
(0.658739 2.41866 3.5773e-19)
(0.410821 2.52204 8.26786e-20)
(0.405475 2.55025 -7.11009e-19)
(0.51425 2.49562 6.74041e-19)
(0.551476 2.46527 0)
(0.488832 2.52079 -6.01281e-19)
(0.248852 2.59712 1.28454e-18)
(0.353615 2.57117 -8.39869e-20)
(0.284863 2.65885 -1.74271e-18)
(0.941758 2.37881 8.05797e-19)
(0.834067 2.38365 0)
(1.01091 0.000380427 2.94562e-20)
(1.01521 -0.00557181 -2.39316e-20)
(1.01766 -0.00366865 -4.37395e-19)
(1.01493 -0.00103171 4.39491e-19)
(1.01229 0.000998055 0)
(0.634626 1.28053 0)
(0.65272 1.17519 0)
(0.754369 1.08237 0)
(0.644072 1.14198 0)
(1.18536 2.62251 5.94722e-20)
(1.07407 2.36647 0)
(0.837522 2.18716 4.74457e-21)
(0.826452 2.44959 0)
(0.922068 2.53943 -5.01781e-19)
(0.957612 2.49525 0)
(0.819795 0.149053 0)
(0.78989 0.127949 1.81407e-19)
(0.925172 0.132841 1.05487e-18)
(0.841271 0.127453 -3.95682e-19)
(0.820787 0.0698236 -1.2101e-18)
(1.07401 0.221601 -1.05769e-18)
(0.994655 0.279356 -1.53583e-20)
(0.918952 0.27501 9.86553e-19)
(1.00542 0.207938 8.28933e-19)
(0.952254 0.174081 -1.40864e-18)
(0.918501 0.175307 1.75894e-19)
(0.950103 0.236167 -3.79886e-19)
(0.929092 0.198135 0)
(0.996274 0.173112 -6.96066e-19)
(1.04632 0.173388 0)
(1.04504 0.199942 0)
(1.10103 0.106888 3.36503e-19)
(1.07236 0.161949 -1.36787e-20)
(1.06788 0.224108 -5.38897e-19)
(1.09749 0.19034 0)
(1.02302 0.0438181 6.99608e-19)
(1.04117 0.0555784 8.74021e-19)
(1.03319 0.0415308 -6.93635e-19)
(1.04149 0.0609389 -5.85694e-19)
(1.0168 0.0682142 -8.91507e-19)
(0.990443 0.147134 0)
(0.999692 0.0982715 0)
(0.970844 0.0635412 -5.6248e-19)
(0.923039 0.0844661 2.20828e-19)
(1.03789 0.0967721 8.10556e-19)
(1.06823 0.10958 -9.68337e-19)
(1.07253 0.14211 8.63534e-19)
(1.03157 0.134197 0)
(1.07352 0.0998216 0)
(1.05684 0.082858 -3.93006e-19)
(1.04484 0.0898263 -6.64546e-19)
(0.578765 1.07803 1.77606e-19)
(0.611407 1.41374 -8.03597e-20)
(1.15591 2.74143 -2.79439e-19)
(1.2227 3.08241 1.22766e-20)
(1.2482 2.72232 -2.45396e-19)
(1.27835 2.70637 2.00365e-20)
(1.2063 2.34557 -1.00853e-20)
(1.20982 2.98608 -1.37342e-19)
(1.22919 2.95102 3.04039e-19)
(1.21384 3.23607 -1.25409e-19)
(1.37505 2.9675 1.73456e-19)
(1.36577 2.88562 0)
(0.537195 0.848724 -5.5523e-20)
(0.13878 1.25977 6.10902e-19)
(0.530231 0.46492 6.64579e-19)
(0.36541 0.215882 7.35255e-19)
(0.530168 0.392088 7.93574e-19)
(0.542204 0.481859 -1.30229e-18)
(0.54516 0.487644 1.06366e-18)
(0.497797 0.412619 -4.00593e-19)
(0.424105 0.349071 9.09233e-19)
(0.757135 0.249383 1.22915e-18)
(0.71966 0.285429 0)
(0.711108 0.21419 9.84625e-21)
(0.725803 0.514471 4.23886e-19)
(0.69686 0.482026 -1.54415e-18)
(0.614278 0.478856 1.64449e-20)
(0.625029 0.459952 0)
(0.666987 0.735075 4.4754e-19)
(0.817337 0.771413 4.73716e-19)
(0.743792 0.853979 -5.52353e-19)
(0.858986 0.803456 -1.92218e-19)
(0.89252 0.84737 -5.15868e-20)
(0.900876 0.848953 5.28159e-20)
(0.831475 0.642682 -8.08587e-19)
(0.909093 0.698902 1.78527e-19)
(0.966183 0.713405 0)
(0.956897 0.689523 -2.48322e-19)
(1.01971 0.319465 2.55662e-19)
(1.13003 0.289845 3.69366e-19)
(1.05979 0.259064 4.32412e-19)
(1.00379 0.354514 -5.10299e-19)
(1.04249 0.421145 0)
(1.09461 0.406458 0)
(0.906687 0.349689 5.23393e-21)
(0.840699 0.283069 0)
(0.868211 0.275765 4.61721e-19)
(0.902576 0.281205 -5.74405e-21)
(0.932157 0.425326 2.43648e-18)
(0.887922 0.486304 6.29726e-19)
(0.893441 0.450445 -6.61574e-19)
(0.817401 0.434058 -7.0866e-19)
(0.799963 0.430468 4.21908e-19)
(0.770412 0.418237 -4.14749e-19)
(1.02719 -0.000481543 7.29529e-19)
(1.01999 -0.000260768 0)
(1.0185 0.000682892 4.75253e-19)
(1.02166 -0.00197492 -3.37585e-21)
(1.02227 0.00403354 5.23039e-19)
(1.02043 0.0109584 -1.09542e-18)
(1.02138 0.0103587 0)
(1.02075 0.0106279 -2.28052e-19)
(1.016 0.00754529 5.7208e-19)
(1.01678 0.0102818 -2.85376e-19)
(1.01748 0.00961844 2.10259e-19)
(0.0310103 1.30923 0)
(0.039531 1.3452 0)
(0.0432851 1.31091 0)
(0.050869 1.27546 0)
(0.0686892 1.36754 1.10348e-19)
(0.0767329 1.34024 -2.56146e-20)
(0.111878 1.49761 -5.5326e-20)
(0.0911747 1.34009 3.6035e-20)
(0.032221 1.4438 -1.03234e-19)
(0.036146 1.4346 7.99729e-20)
(0.0619608 1.3501 -5.66636e-21)
(0.0555455 1.35134 7.83964e-20)
(0.0515234 1.33193 -9.16848e-21)
(0.0407752 1.35224 1.19775e-20)
(0.106721 2.38575 -2.32281e-19)
(0.0956698 2.43002 0)
(0.173046 2.06004 1.41255e-19)
(0.108502 1.70868 7.53621e-20)
(0.232393 2.05173 -1.13834e-19)
(0.208544 2.44768 0)
(0.267715 2.39888 -6.918e-19)
(0.306981 2.39675 4.90506e-19)
(0.23408 2.00993 -4.26497e-19)
(0.154436 2.17549 2.0189e-19)
(0.145763 2.29414 0)
(0.0118568 1.88125 -1.14907e-19)
(-0.00984224 2.41105 -1.85489e-19)
(-0.00164107 2.16404 0)
(0.00980218 2.46949 -1.42378e-20)
(0.0196065 2.31722 6.84598e-20)
(0.0146774 1.39301 9.62432e-21)
(0.0123374 1.3819 -1.46493e-19)
(0.0146696 1.39029 3.55624e-20)
(0.0124051 1.38918 5.3218e-20)
(0.0204627 1.41255 0)
(0.0177357 1.37142 0)
(0.0558967 1.26069 6.12974e-20)
(0.0541734 1.37292 -2.17334e-20)
(0.019439 1.36484 0)
(0.0354111 1.27448 3.86213e-20)
(0.00896795 1.14894 -8.08523e-20)
(1.03991 0.0109011 0)
(1.04611 0.00715713 -7.68838e-20)
(1.03855 0.02013 -5.52454e-19)
(1.04767 0.0190413 0)
(1.05121 0.0192787 0)
(1.03653 0.0108389 -6.60781e-21)
(1.03105 0.0106183 8.86647e-19)
(1.03202 0.0157011 1.07507e-18)
(1.02599 0.0196501 0)
(1.0233 0.0200982 0)
(1.03519 0.0236868 5.5158e-19)
(1.02637 0.0250812 0)
(1.02473 0.0251058 0)
(-0.0470467 2.01866 0)
(0.0241031 1.73325 3.20821e-21)
(-0.0120575 1.81094 3.94049e-21)
(0.0634337 1.3787 0)
(0.0207839 1.59832 4.30188e-20)
(0.0543856 1.50654 -2.33554e-20)
(0.0870764 1.43987 0)
(0.395878 1.67743 0)
(0.366809 1.29289 -2.01789e-19)
(0.307379 1.34106 0)
(0.423632 1.29331 5.36277e-20)
(0.466549 1.44878 0)
(0.447652 1.39363 -4.97243e-20)
(1.03441 2.68669 -1.73202e-20)
(0.963679 2.409 -1.07328e-18)
(0.913038 2.18721 1.17139e-18)
(0.847359 2.3754 2.62964e-19)
(0.84623 2.49833 0)
(0.916436 2.49376 0)
(0.925139 2.37224 0)
(0.902879 2.35921 -1.02293e-18)
(0.691588 2.46811 -4.61621e-19)
(0.801841 2.45878 -1.11998e-19)
(0.812657 2.43153 8.54789e-20)
(0.69369 2.39301 0)
(0.797404 2.38815 0)
(0.756349 2.40104 -3.90256e-19)
(0.769352 2.48934 0)
(0.611605 1.09824 0)
(0.481539 0.928575 -5.79171e-19)
(0.549065 0.964212 -3.67295e-20)
(0.519167 1.05593 0)
(0.519034 1.00548 8.69663e-19)
(0.767633 0.880468 -1.60594e-19)
(0.778551 1.01312 0)
(0.75195 0.971479 2.4193e-19)
(0.639968 1.03497 0)
(0.644255 0.944357 0)
(1.16405 2.76222 -2.81647e-19)
(1.14154 2.82602 -1.34592e-19)
(0.931072 2.34661 1.64256e-19)
(0.898973 2.32519 -9.15025e-20)
(1.12893 2.73469 0)
(1.08248 2.7047 1.2474e-19)
(1.08876 2.48635 -3.59883e-19)
(0.983533 2.2334 -3.03724e-20)
(0.498366 1.35829 0)
(0.51083 1.0764 -1.56673e-19)
(0.562314 1.16291 0)
(0.860954 0.213076 0)
(0.797375 0.166771 0)
(0.748554 0.140463 0)
(0.855544 0.219198 -7.26764e-19)
(0.773915 0.211198 4.24742e-19)
(0.936687 0.0713364 -4.56148e-19)
(0.950262 0.116127 0)
(0.928794 0.124764 1.95922e-19)
(0.870279 0.100625 7.84853e-19)
(0.847505 0.060172 -4.91182e-19)
(1.16146 3.3616 -6.8457e-19)
(1.20891 3.28091 0)
(1.16007 3.38958 -1.42286e-18)
(0.647645 3.55048 1.20664e-18)
(0.87249 3.11799 2.9545e-20)
(0.51124 0.854375 6.58024e-19)
(0.429058 0.847172 0)
(0.339637 0.499407 -1.65096e-19)
(0.446203 0.684489 -9.4559e-19)
(0.533281 0.471332 -2.29527e-19)
(0.507792 0.52313 2.59564e-19)
(0.658209 0.535214 5.699e-19)
(0.686182 0.552982 0)
(0.637685 0.618559 0)
(0.596159 0.555687 0)
(0.969175 0.598238 1.33329e-19)
(0.889487 0.53548 -6.12828e-19)
(0.913216 0.568599 4.7797e-19)
(0.949242 0.503868 -4.76488e-19)
(1.05222 0.480124 0)
(1.06078 0.568649 -1.25147e-19)
(0.840889 0.385848 -9.64387e-19)
(0.844829 0.371113 1.54494e-18)
(0.792682 0.383452 7.51834e-19)
(0.789882 0.351716 -7.65638e-19)
(0.840027 0.30713 -5.99766e-19)
(0.79385 0.306392 7.36943e-19)
(1.02673 0.00540733 -5.59826e-19)
(1.02648 0.00562602 1.14188e-18)
(1.02905 -0.000550498 7.0818e-19)
(1.03333 0.000512592 -8.52509e-19)
(1.03297 0.00805244 0)
(1.03003 0.0086573 -1.38786e-18)
(0.0603259 1.64347 4.15946e-20)
(0.0414292 1.56743 0)
(0.0863574 1.69547 2.708e-19)
(0.0936775 1.67499 -2.43282e-19)
(0.0896218 1.51499 1.03836e-19)
(0.0826743 1.49512 0)
(0.000151705 1.69583 0)
(-0.0101855 1.50676 -2.3798e-20)
(0.0093085 1.44711 2.14342e-20)
(0.0160702 1.58827 6.00326e-21)
(-0.00677982 1.89118 -4.45221e-20)
(-0.0355757 1.93863 -7.29589e-20)
(0.497603 1.37418 -3.9321e-19)
(0.493135 1.37875 -4.4955e-19)
(0.446518 1.28979 -1.17964e-19)
(0.438285 1.2944 1.40563e-20)
(0.626197 1.2938 0)
(0.543627 1.38085 1.59643e-20)
(0.560987 1.38926 -1.55439e-20)
(0.455781 1.27673 1.13634e-19)
(0.511499 1.23128 0)
(0.564503 1.19834 0)
(0.658755 2.42787 6.78128e-19)
(0.670834 2.4647 1.39737e-18)
(0.716883 2.47715 -9.61962e-19)
(0.616338 2.45457 -2.21177e-19)
(0.563615 2.54564 3.17258e-19)
(0.512398 2.51897 -8.38216e-19)
(0.975367 2.37747 -6.56542e-19)
(1.01187 2.39211 0)
(0.92116 2.16591 -7.54748e-19)
(1.05253 2.68386 0)
(1.05466 2.67046 0)
(0.612656 2.27833 -1.59401e-19)
(1.04176 3.16465 9.0438e-20)
(0.913008 3.03499 8.02701e-21)
(0.282518 0.918947 0)
(0.323787 0.780977 -3.44076e-19)
(0.480546 0.734905 -1.3799e-18)
(0.39201 2.02599 0)
(0.468011 2.78706 -2.05672e-20)
(0.424625 2.55115 0)
(0.680101 0.68204 -9.50758e-19)
(0.762542 0.681456 1.30627e-18)
(0.782406 0.623543 8.23398e-19)
(0.662195 0.644238 1.22522e-19)
(0.719039 0.598081 -5.09735e-19)
(1.00358 2.76836 -6.8765e-20)
(1.04043 2.82477 -2.31632e-19)
(0.641054 2.15533 7.38467e-19)
(0.596175 1.72033 -5.22416e-19)
(0.699231 1.91034 -4.83664e-19)
(0.989022 2.45124 -1.21799e-19)
(0.99391 2.44535 3.68331e-19)
(0.660833 1.85117 3.29807e-20)
(0.450577 1.33759 6.68696e-19)
)
;

boundaryField
{
    wall-4
    {
        type            noSlip;
    }
    velocity-inlet-5
    {
        type            fixedValue;
        value           uniform (1 0 0);
    }
    velocity-inlet-6
    {
        type            fixedValue;
        value           uniform (0 3 0);
    }
    pressure-outlet-7
    {
        type            zeroGradient;
    }
    wall-8
    {
        type            noSlip;
    }
    frontAndBackPlanes
    {
        type            empty;
    }
}


// ************************************************************************* //
