/*--------------------------------*- C++ -*----------------------------------*\
| =========                 |                                                 |
| \\      /  F ield         | OpenFOAM: The Open Source CFD Toolbox           |
|  \\    /   O peration     | Version:  2412                                  |
|   \\  /    A nd           | Website:  www.openfoam.com                      |
|    \\/     M anipulation  |                                                 |
\*---------------------------------------------------------------------------*/
FoamFile
{
    version     2.0;
    format      ascii;
    arch        "LSB;label=32;scalar=64";
    class       surfaceScalarField;
    location    "3";
    object      phi;
}
// * * * * * * * * * * * * * * * * * * * * * * * * * * * * * * * * * * * * * //

dimensions      [0 3 -1 0 0 0 0];

oriented        oriented;

internalField   nonuniform List<scalar> 
47
(
3.75095
1.88283
1.86813
-0.567747
4.3187
3.18321
3.18321
-1.88608
3.7689
1.86487
-1.83505
6.15375
-1.91591
3.78403
3.17732
0.00588596
3.17732
3.14796
0.0293561
-3.14796
-0.0225584
3.74145
-4.15935
4.16523
1.9944
1.7779
1.98535
1.84202
1.92688
3.29184
0.873391
3.3212
-1.93039
3.77242
-1.85364
3.84804
-1.86508
-1.87637
-3.90338
-2.47039
3.92594
-0.604738
0.00460853
3.85265
4.72604
4.1213
4.32034
)
;

boundaryField
{
    wall-4
    {
        type            calculated;
        value           uniform 0;
    }
    velocity-inlet-5
    {
        type            calculated;
        value           uniform -3.75095;
    }
    velocity-inlet-6
    {
        type            calculated;
        value           nonuniform List<scalar> 0();
    }
    pressure-outlet-7
    {
        type            calculated;
        value           nonuniform List<scalar> 0();
    }
    wall-8
    {
        type            calculated;
        value           nonuniform List<scalar> 0();
    }
    frontAndBackPlanes
    {
        type            empty;
    }
    procBoundary4to1
    {
        type            processor;
        value           nonuniform List<scalar> 2(3.17052 6.37376);
    }
    procBoundary4to3
    {
        type            processor;
        value           nonuniform List<scalar> 3(-2.4563 -3.76325 -1.87658);
    }
    procBoundary4to5
    {
        type            processor;
        value           nonuniform List<scalar> 6(4.2342 3.79197 3.86172 3.76781 -0.199041 1.84996);
    }
}


// ************************************************************************* //
