/*--------------------------------*- C++ -*----------------------------------*\
| =========                 |                                                 |
| \\      /  F ield         | OpenFOAM: The Open Source CFD Toolbox           |
|  \\    /   O peration     | Version:  2412                                  |
|   \\  /    A nd           | Website:  www.openfoam.com                      |
|    \\/     M anipulation  |                                                 |
\*---------------------------------------------------------------------------*/
FoamFile
{
    version     2.0;
    format      ascii;
    arch        "LSB;label=32;scalar=64";
    class       volVectorField;
    location    "3";
    object      U;
}
// * * * * * * * * * * * * * * * * * * * * * * * * * * * * * * * * * * * * * //

dimensions      [0 1 -1 0 0 0 0];

internalField   nonuniform List<vector> 
38
(
(0.973606 -0.0346429 0)
(0.993504 -0.00293271 0)
(0.942709 -0.0134622 0)
(0.943238 -0.0220959 0)
(0.975642 0.0153701 0)
(0.993456 -0.00015455 0)
(0.996218 0.00247255 0)
(0.956212 -0.0512587 0)
(0.996801 -0.00591477 0)
(1.00754 5.70373e-06 0)
(1.00149 0.0261671 0)
(0.969353 0.0181375 0)
(0.982758 0.0123638 0)
(0.991071 0.000808605 0)
(0.954876 0.0143414 0)
(0.986579 0.00114902 0)
(1.00542 -0.0388421 0)
(1.00926 -0.0641729 4.43273e-19)
(1.0158 0.0111863 1.18786e-20)
(0.98006 0.0119212 -9.27902e-19)
(1.0167 -0.00531153 -3.9754e-21)
(0.971449 -0.0284639 0)
(0.979181 -0.0265378 0)
(1.01713 -0.0070123 5.75916e-19)
(1.03208 -0.00976233 -6.68803e-19)
(1.02627 -0.0157604 0)
(1.01251 -0.00917188 -5.66935e-19)
(1.04009 0.0201305 6.89982e-19)
(1.00853 0.00213922 0)
(1.00861 -0.0025672 0)
(0.992322 -0.00798279 0)
(1.00648 0.0132395 0)
(1.00856 -0.0168129 0)
(0.989526 -0.00571057 0)
(0.972194 0.0546792 0)
(1.02321 0.0660729 0)
(1.03145 0.061859 1.76525e-20)
(1.003 -0.000239566 -3.18866e-19)
)
;

boundaryField
{
    wall-4
    {
        type            noSlip;
    }
    velocity-inlet-5
    {
        type            fixedValue;
        value           uniform (1 0 0);
    }
    velocity-inlet-6
    {
        type            fixedValue;
        value           nonuniform List<vector> 0();
    }
    pressure-outlet-7
    {
        type            zeroGradient;
    }
    wall-8
    {
        type            noSlip;
    }
    frontAndBackPlanes
    {
        type            empty;
    }
    procBoundary4to1
    {
        type            processor;
        value           nonuniform List<vector> 2((0.959329 -0.0155317 0) (1.01381 0.0141904 0));
    }
    procBoundary4to3
    {
        type            processor;
        value           nonuniform List<vector> 3((0.996521 0.0281363 -2.37575e-18) (0.994582 0.00263743 0) (0.997011 0.00234681 0));
    }
    procBoundary4to5
    {
        type            processor;
        value           nonuniform List<vector> 6((0.987254 0.0181031 6.80033e-19) (1.01231 -0.00639269 0) (1.02253 0.0131629 0) (1.02312 -0.0168814 0) (1.02023 -0.00334983 2.04473e-20) (0.999553 0.00427717 -3.2854e-19));
    }
}


// ************************************************************************* //
