/*--------------------------------*- C++ -*----------------------------------*\
| =========                 |                                                 |
| \\      /  F ield         | OpenFOAM: The Open Source CFD Toolbox           |
|  \\    /   O peration     | Version:  2412                                  |
|   \\  /    A nd           | Website:  www.openfoam.com                      |
|    \\/     M anipulation  |                                                 |
\*---------------------------------------------------------------------------*/
FoamFile
{
    version     2.0;
    format      ascii;
    arch        "LSB;label=32;scalar=64";
    class       surfaceScalarField;
    location    "2";
    object      phi;
}
// * * * * * * * * * * * * * * * * * * * * * * * * * * * * * * * * * * * * * //

dimensions      [0 3 -1 0 0 0 0];

oriented        oriented;

internalField   nonuniform List<scalar> 
43
(
3.75095
3.16951
-3.16951
3.12119
3.12119
1.87216
1.8788
5.62311
-5.62311
-3.16184
3.16184
-1.87387
3.16949
-3.16949
3.08048
0.0890131
-3.08048
-0.0192883
-3.20868
3.20868
-3.15453
3.15453
3.14496
-3.14496
-0.0168758
-3.16432
-0.00517474
3.16432
-0.00248045
-5.78941
5.78693
-3.78016
-3.818
3.80823
1.97869
3.80306
3.25577
0.547286
-3.34479
-0.435376
4.87678
3.11175
3.65903
)
;

boundaryField
{
    wall-4
    {
        type            calculated;
        value           uniform 0;
    }
    velocity-inlet-5
    {
        type            calculated;
        value           uniform -3.75095;
    }
    velocity-inlet-6
    {
        type            calculated;
        value           nonuniform List<scalar> 0();
    }
    pressure-outlet-7
    {
        type            calculated;
        value           nonuniform List<scalar> 0();
    }
    wall-8
    {
        type            calculated;
        value           nonuniform List<scalar> 0();
    }
    frontAndBackPlanes
    {
        type            empty;
    }
    procBoundary3to0
    {
        type            processor;
        value           nonuniform List<scalar> 2(1.76503 3.22366);
    }
    procBoundary3to4
    {
        type            processor;
        value           nonuniform List<scalar> 3(2.45359 3.75266 1.87709);
    }
    procBoundary3to5
    {
        type            processor;
        value           nonuniform List<scalar> 7(0.0483273 -0.0541474 -0.0333407 0.0637114 -1.9714 -3.83488 -2.89809);
    }
    procBoundary3to11
    {
        type            processor;
        value           nonuniform List<scalar> 2(3.09977 3.76087);
    }
}


// ************************************************************************* //
