/*--------------------------------*- C++ -*----------------------------------*\
| =========                 |                                                 |
| \\      /  F ield         | OpenFOAM: The Open Source CFD Toolbox           |
|  \\    /   O peration     | Version:  2412                                  |
|   \\  /    A nd           | Website:  www.openfoam.com                      |
|    \\/     M anipulation  |                                                 |
\*---------------------------------------------------------------------------*/
FoamFile
{
    version     2.0;
    format      ascii;
    arch        "LSB;label=32;scalar=64";
    class       surfaceScalarField;
    location    "1";
    object      phi;
}
// * * * * * * * * * * * * * * * * * * * * * * * * * * * * * * * * * * * * * //

dimensions      [0 3 -1 0 0 0 0];

oriented        oriented;

internalField   nonuniform List<scalar> 
46
(
-6.37249
-5.33929
5.33929
-3.24993
1.24535
-8.00993
-5.12715
-5.12715
-3.17351
-3.29024
0.0832354
3.2782
-6.52814
-3.32428
5.21907
0.120216
-5.21907
0.0919232
3.29596
-6.62024
3.22867
-6.40217
3.17848
-11.1884
3.42854
-6.71877
-3.31732
-3.21082
-7.53626
-7.06709
-4.12133
-6.97517
-3.2077
-3.19447
8.81962
3.29565
-6.50335
3.32459
-6.53541
-1.66068
5.49042
-5.61063
3.23748
3.48129
-2.49722
9.03263
)
;

boundaryField
{
    wall-4
    {
        type            calculated;
        value           nonuniform List<scalar> 0();
    }
    velocity-inlet-5
    {
        type            calculated;
        value           nonuniform List<scalar> 0();
    }
    velocity-inlet-6
    {
        type            calculated;
        value           nonuniform List<scalar> 0();
    }
    pressure-outlet-7
    {
        type            calculated;
        value           nonuniform List<scalar> 7(6.37249 6.09102 6.76459 6.46374 6.60248 6.52462 6.60702);
    }
    wall-8
    {
        type            calculated;
        value           uniform 0;
    }
    frontAndBackPlanes
    {
        type            empty;
    }
    procBoundary16to15
    {
        type            processor;
        value           nonuniform List<scalar> 4(-2.84109 4.21894 -5.87557 -10.6933);
    }
    procBoundary16to17
    {
        type            processor;
        value           nonuniform List<scalar> 7(-5.42252 -8.73638 3.3292 -1.36453 -7.35881 -6.67577 -4.00613);
    }
}


// ************************************************************************* //
