/*--------------------------------*- C++ -*----------------------------------*\
| =========                 |                                                 |
| \\      /  F ield         | OpenFOAM: The Open Source CFD Toolbox           |
|  \\    /   O peration     | Version:  2412                                  |
|   \\  /    A nd           | Website:  www.openfoam.com                      |
|    \\/     M anipulation  |                                                 |
\*---------------------------------------------------------------------------*/
FoamFile
{
    version     2.0;
    format      ascii;
    arch        "LSB;label=32;scalar=64";
    class       surfaceScalarField;
    location    "7";
    object      phi;
}
// * * * * * * * * * * * * * * * * * * * * * * * * * * * * * * * * * * * * * //

dimensions      [0 3 -1 0 0 0 0];

oriented        oriented;

internalField   nonuniform List<scalar> 
47
(
-5.32598
5.32598
-5.28181
-0.044168
-5.28181
5.3406
-0.0146227
5.3406
0.0192152
-0.0323041
10.2324
-10.2637
10.6628
-10.707
-12.2649
3.44328
-3.43751
10.3663
-2.68528
-6.88818
-5.37677
6.9028
3.75998
3.54911
6.81722
-7.30909
1.93232
-5.30128
-5.28672
10.588
-7.98656
8.72423
-2.62221
-6.10202
-6.64804
-9.83589
-3.01866
3.88609
-6.00837
4.10047
-6.72268
2.55854
-7.075
-7.479
0.756319
-3.52557
-7.06242
)
;

boundaryField
{
    wall-4
    {
        type            calculated;
        value           nonuniform List<scalar> 0();
    }
    velocity-inlet-5
    {
        type            calculated;
        value           nonuniform List<scalar> 0();
    }
    velocity-inlet-6
    {
        type            calculated;
        value           nonuniform List<scalar> 0();
    }
    pressure-outlet-7
    {
        type            calculated;
        value           nonuniform List<scalar> 0();
    }
    wall-8
    {
        type            calculated;
        value           uniform 0;
    }
    frontAndBackPlanes
    {
        type            empty;
    }
    procBoundary13to12
    {
        type            processor;
        value           nonuniform List<scalar> 5(0.0313783 -6.82624 0.972985 -4.92046 -6.31868);
    }
    procBoundary13to14
    {
        type            processor;
        value           nonuniform List<scalar> 6(-5.24951 -7.68105 -4.05892 -6.68034 2.12228 -8.5669);
    }
    procBoundary13to15
    {
        type            processor;
        value           nonuniform List<scalar> 3(6.78908 6.96886 4.04376);
    }
    procBoundary13to17
    {
        type            processor;
        value           nonuniform List<scalar> 3(5.32139 12.2842 11.7682);
    }
}


// ************************************************************************* //
