/*--------------------------------*- C++ -*----------------------------------*\
| =========                 |                                                 |
| \\      /  F ield         | OpenFOAM: The Open Source CFD Toolbox           |
|  \\    /   O peration     | Version:  2412                                  |
|   \\  /    A nd           | Website:  www.openfoam.com                      |
|    \\/     M anipulation  |                                                 |
\*---------------------------------------------------------------------------*/
FoamFile
{
    version     2.0;
    format      ascii;
    arch        "LSB;label=32;scalar=64";
    class       volScalarField;
    location    "5";
    object      p;
}
// * * * * * * * * * * * * * * * * * * * * * * * * * * * * * * * * * * * * * //

dimensions      [0 2 -2 0 0 0 0];

internalField   nonuniform List<scalar> 
38
(
-0.691545
-0.47352
-0.601107
-0.526396
-0.800256
-0.403375
-0.522719
-0.716416
-0.645348
-0.895887
-0.219976
-0.262549
-0.385147
-0.0895238
-0.281322
-0.12967
-0.230037
-0.0838202
0.0420449
-0.23181
-0.286448
-0.367782
0.0320337
0.126552
0.156736
0.0997998
-0.138571
-0.0464677
0.347212
0.333204
0.300436
0.148201
0.0107698
-0.0653794
-0.109182
0.0858076
0.141723
0.175746
)
;

boundaryField
{
    wall-4
    {
        type            zeroGradient;
    }
    velocity-inlet-5
    {
        type            zeroGradient;
    }
    velocity-inlet-6
    {
        type            zeroGradient;
    }
    pressure-outlet-7
    {
        type            fixedValue;
        value           nonuniform List<scalar> 0();
    }
    wall-8
    {
        type            zeroGradient;
    }
    frontAndBackPlanes
    {
        type            empty;
    }
    procBoundary21to6
    {
        type            processor;
        value           nonuniform List<scalar> 2(-0.349449 -0.15053);
    }
    procBoundary21to18
    {
        type            processor;
        value           uniform 0.522237;
    }
    procBoundary21to19
    {
        type            processor;
        value           nonuniform List<scalar> 4(0.0291178 0.0699055 0.335762 0.335762);
    }
    procBoundary21to22
    {
        type            processor;
        value           nonuniform List<scalar> 3(-0.894055 -0.316684 0.0237157);
    }
    procBoundary21to23
    {
        type            processor;
        value           nonuniform List<scalar> 3(0.246529 0.314973 0.25047);
    }
}


// ************************************************************************* //
