/*--------------------------------*- C++ -*----------------------------------*\
| =========                 |                                                 |
| \\      /  F ield         | OpenFOAM: The Open Source CFD Toolbox           |
|  \\    /   O peration     | Version:  2412                                  |
|   \\  /    A nd           | Website:  www.openfoam.com                      |
|    \\/     M anipulation  |                                                 |
\*---------------------------------------------------------------------------*/
FoamFile
{
    version     2.0;
    format      ascii;
    arch        "LSB;label=32;scalar=64";
    class       volScalarField;
    location    "29";
    object      p;
}
// * * * * * * * * * * * * * * * * * * * * * * * * * * * * * * * * * * * * * //

dimensions      [0 2 -2 0 0 0 0];

internalField   nonuniform List<scalar> 
918
(
0.335494
0.99178
0.0161524
0.334737
-0.0285652
0.958808
-0.724468
0.5088
0.315572
-0.305913
-0.285968
0.308006
0.819573
0.585969
-1.35075
-0.233156
0.46085
-0.603279
0.314559
-0.237311
0.545785
0.322217
0.325258
0.315857
0.375886
0.566868
0.700587
-0.0294548
0.00622859
-0.0313928
-0.0665696
-0.153894
-0.198166
0.842437
0.89354
0.916229
0.284308
0.111711
-0.582406
-0.654628
-0.645033
-0.772698
0.500966
0.504252
-0.389123
0.508632
0.519723
0.302938
0.314932
0.315852
0.316969
0.315888
0.317301
0.203799
-0.313121
-0.34118
-0.284869
-0.279477
-0.115931
-0.271111
-0.267367
-0.299063
-0.3138
0.237034
0.304746
0.302233
0.31285
0.319782
0.931329
0.903231
0.92937
0.843145
0.85958
0.797521
0.770061
0.606197
0.628136
0.571919
0.558276
-1.79025
-2.75601
-0.753102
-0.497992
-0.0171265
-0.187921
-0.161888
0.450631
0.452608
0.46112
0.473143
0.857447
-0.599359
-0.734023
0.314667
0.313455
0.321894
0.322574
0.318581
0.317673
-0.2789
-0.298213
-0.08177
-0.21439
-0.170015
0.533122
0.531249
0.31641
0.313445
0.327473
0.348216
0.339697
0.0741277
0.382124
0.3991
0.38746
0.553629
0.550237
0.558054
0.674202
0.638023
0.737513
0.760763
-0.0135508
-0.00807475
-0.24556
-0.223964
-0.247962
0.280299
0.27316
0.298554
0.287612
0.290008
0.0269113
-0.109429
0.198231
0.22287
-0.491252
-0.55607
-0.661226
-0.67733
-0.788126
0.367433
0.490631
0.491102
-0.408276
-0.326924
-0.467135
-0.253189
-0.316809
0.293454
0.300255
0.295345
0.31065
0.305181
0.307106
0.319165
0.316267
0.317803
0.267209
0.38981
0.13165
0.0991385
-0.461667
-0.362265
-0.455088
-0.271422
-0.268407
-0.110149
-0.0934244
-0.132552
-0.126435
-0.261519
-0.266172
-0.263289
-0.332832
-0.333167
0.22983
0.219087
0.24869
0.255803
0.29618
0.297079
0.299826
0.298321
0.72077
0.743264
0.75072
0.724345
-3.76078
-6.5723
-0.167785
-0.0281494
-0.040634
-0.0310584
-0.0178782
-0.0337146
-0.0132878
-0.0121507
-0.107751
-0.109854
-0.110086
-0.130869
0.436184
0.436675
0.773516
0.768059
0.759463
0.710388
0.302669
0.304837
0.310402
0.306253
-0.345209
-0.322191
-0.333617
0.517453
0.52533
0.525332
0.0385524
-0.0452761
0.120652
0.147787
0.42181
0.404843
0.419797
0.450272
0.487241
0.768292
0.786559
0.784716
0.793062
0.837029
0.853373
0.818848
0.261113
0.270284
0.265501
0.301825
0.299494
0.30044
0.295546
0.297251
0.294912
-0.262504
-0.648432
0.282407
0.298682
0.271144
0.282515
0.442845
0.513819
0.471892
0.480277
0.481933
-0.186613
-0.245871
0.0600423
0.0335939
0.173197
0.207482
0.18801
0.692083
0.652168
0.702303
0.675642
0.636792
0.66311
-0.600565
-2.1195
-1.22827
0.329155
0.139149
0.228721
-0.139515
-0.135032
-0.123438
0.757232
0.836826
0.444798
0.606023
0.617997
0.523286
0.552921
0.612166
0.53747
0.572508
0.606758
0.584977
0.326152
0.29366
0.290861
0.582394
0.638104
-0.0728045
-0.12582
-0.171989
-0.0755378
-0.0180463
-0.0457612
0.804683
0.697132
0.771282
0.313164
0.313845
-0.0701552
-0.114233
0.317928
0.317943
-0.0844663
-0.211582
0.209927
-1.06031
-0.0852412
0.306332
0.296798
0.313564
-0.295951
0.166751
-0.252209
-0.116611
-0.156885
0.305863
0.246201
0.208502
-0.0995585
-0.278555
-0.295681
-0.4203
0.310828
0.309159
0.313037
0.314079
0.314714
-0.135623
-0.122845
-0.0932314
-0.298882
-0.192488
-0.229616
0.278615
0.295114
-0.377134
0.313194
0.3153
0.315137
0.308258
0.313929
0.312163
-0.241775
-0.227786
-0.303696
0.0245751
0.141015
0.458116
0.555206
0.422351
0.195302
-0.0443977
0.357533
0.423265
0.325216
0.48452
0.482824
0.498932
-0.0234887
-0.170174
-0.0146066
-0.0698064
0.304236
0.302873
0.295073
0.292237
0.308452
0.306539
0.311131
0.308053
0.310989
0.312417
-0.251727
-0.269473
-0.292283
-0.350828
0.125456
0.380238
0.0575823
0.0850202
-0.0419844
-0.274806
-0.285392
-0.238679
-0.259123
-0.170884
-0.177558
-0.128135
-0.124931
-0.170045
-0.167764
-0.177141
-0.197972
-0.196198
0.299581
0.298628
0.304821
0.311915
0.255362
0.259447
0.225912
0.245213
0.230909
0.174699
0.20815
0.183153
-0.0815408
-0.124977
-0.0707245
-0.273059
-0.192702
-0.272788
-0.218186
-0.313531
-0.199004
-0.198348
-0.355458
-0.341066
-0.381584
-0.496018
0.758803
0.703309
-0.105955
0.300121
0.306457
0.303312
0.307938
0.311077
0.311998
0.309739
0.306291
0.295791
0.297627
0.29391
0.294246
-0.317655
-0.453925
-0.278555
-0.345714
-0.0809467
0.414001
0.1544
0.095283
0.0899444
0.307841
0.703572
0.501469
0.502697
0.527286
-0.563351
-0.166218
-0.49606
0.122396
-0.0545288
0.457862
0.507238
0.527967
0.476211
0.427938
-0.334685
0.325125
-0.264758
-0.221173
-0.0305239
-0.135121
0.501234
0.465313
0.469823
0.486307
0.505226
0.470524
0.448469
0.444722
0.482949
0.488634
0.280916
0.056972
0.0124764
-0.0254478
0.448605
0.322745
0.38081
0.294992
0.299034
0.301928
0.300462
0.283388
0.290557
0.286391
0.29182
0.294951
0.304191
0.304507
0.299973
0.302245
-0.254129
-0.2638
-0.232382
-0.343877
-0.334053
-0.385269
-0.275991
-0.140937
-0.174469
0.0140613
0.121718
-0.166598
-0.28298
-0.252827
-0.224759
-0.0399189
-0.0150768
-0.115336
-0.0285259
-0.0467365
-0.0562644
0.0396414
0.0473308
-0.248163
-0.215578
-0.233566
-0.23904
-0.147089
-0.090529
-0.0727452
-0.246125
-0.194852
-0.305755
-0.324686
-0.237313
-0.228575
-0.21869
-0.18796
-0.320852
-0.272861
-0.276191
-0.290297
-0.239005
-0.245999
0.294187
0.295706
0.295752
0.304029
0.318123
0.332849
0.297034
0.276685
0.268056
0.270941
0.245758
0.255109
0.251182
0.263684
0.283156
0.290864
0.290011
0.292404
0.275687
0.277503
0.26483
0.267819
0.245447
0.227982
0.216993
-0.267467
-0.195214
-0.264206
-0.217451
-0.135254
-0.174187
-0.185308
-0.246902
-0.226659
-0.198477
-0.160978
-0.386929
-0.347643
-0.294056
-0.218657
-0.401516
-0.433998
-0.502862
0.667134
0.779476
0.594671
0.376445
0.380577
0.61392
0.705319
0.344406
0.515733
0.544959
0.339838
0.599781
0.304833
0.304475
0.302129
0.301549
0.302842
-0.233751
-0.134186
-0.119985
-0.0690991
0.0500568
0.165648
0.0723523
-0.0518633
0.0842761
0.0916487
0.408641
0.425159
0.370134
0.395088
0.392933
0.22034
0.297226
0.352043
0.306253
0.35027
0.372406
0.333665
0.363864
0.310861
0.268836
0.267586
0.212789
0.233968
0.211422
0.193423
0.294238
0.272684
0.282811
0.273639
0.292998
0.320627
0.314946
0.341659
0.353393
0.279003
0.239687
0.248934
0.276539
0.238252
0.251452
0.266491
-0.0044825
-0.105667
-0.017261
-0.308583
-0.225734
-0.241771
-0.287793
-0.244109
0.0424123
-0.656748
-0.630028
-1.26455
0.265507
0.733575
0.456579
0.427502
0.500669
0.478621
0.481248
0.505964
0.512831
0.438077
0.45536
0.459613
0.412274
0.436309
0.460363
0.458052
0.294526
0.17294
0.164117
0.124995
0.0020762
0.03423
0.238449
0.160178
0.0874138
0.0925568
0.255977
0.146527
0.211971
0.250179
0.182022
0.13808
0.337806
0.405574
0.396775
0.370891
0.287009
0.299117
0.325265
0.360774
0.387537
0.421722
0.291736
0.297372
0.298675
0.296299
0.29335
0.296187
0.296313
0.298812
0.299686
0.302635
0.301596
-0.254496
-0.235598
-0.25597
-0.264317
-0.228234
-0.235031
-0.188963
-0.193544
-0.214321
-0.207211
-0.237522
-0.237912
-0.234358
-0.225413
-0.103704
-0.0874541
-0.101177
-0.146276
0.027196
0.16351
0.225732
0.108874
-0.000217487
0.0290961
0.0574153
-0.219821
-0.167703
-0.179872
-0.14425
-0.158894
-0.295794
-0.326773
-0.324945
-0.225781
-0.265701
-0.378343
-0.363544
-0.374436
-0.37227
-0.344427
-0.352961
0.278903
0.272505
0.273523
0.267961
0.266844
0.280101
0.284255
0.285882
0.290972
0.292623
0.283658
0.288743
0.292079
-0.366967
-0.423865
-0.410199
-0.383969
-0.447169
-0.438759
-0.407798
-0.110528
-0.183647
-0.178198
-0.219739
-0.34166
-0.286601
0.250509
0.248775
0.261686
0.475184
0.328752
0.247447
0.342222
0.445403
0.0354141
0.235572
0.0665379
0.64812
0.536944
0.680455
0.306358
0.0111302
0.164817
0.215502
0.0233396
0.0945286
0.104676
-0.00664862
0.0253335
0.055545
0.155011
0.0346504
0.00783063
-0.238037
-0.0534362
0.072083
0.0512212
0.185646
0.250666
0.0201803
-0.0554082
-0.0997898
0.399834
0.419968
0.438655
0.408409
0.433296
0.355397
0.346724
0.365179
0.373756
0.367637
-0.991985
-0.699184
-1.64418
-0.956841
-0.506008
0.299023
0.260205
0.53363
0.424583
0.491861
0.47677
0.437248
0.402252
0.413477
0.446604
0.148455
0.258673
0.232273
0.239548
0.142346
0.0759654
0.374219
0.367464
0.406166
0.429822
0.394847
0.429065
0.28942
0.289053
0.288766
0.285538
0.283878
0.285833
-0.13906
-0.169573
-0.14411
-0.160879
-0.181286
-0.18784
-0.349163
-0.371794
-0.393407
-0.425671
-0.367027
-0.330807
-0.0737056
-0.12924
-0.202324
-0.173964
-0.231115
-0.293213
-0.312068
-0.214799
-0.127262
-0.134522
0.168184
0.419373
0.243807
0.412627
0.249844
0.306439
0.254271
0.246741
0.277679
0.149918
0.225753
-0.00263636
-0.508828
-0.416375
0.550367
0.570008
0.358912
0.17144
-0.0589569
0.129153
0.322955
0.261366
0.301026
0.369567
0.362884
-0.219373
-0.152235
0.108401
0.336011
0.00271927
-0.00483434
-0.00981116
0.163667
0.087655
)
;

boundaryField
{
    wall-4
    {
        type            zeroGradient;
    }
    velocity-inlet-5
    {
        type            zeroGradient;
    }
    velocity-inlet-6
    {
        type            zeroGradient;
    }
    pressure-outlet-7
    {
        type            fixedValue;
        value           uniform 0;
    }
    wall-8
    {
        type            zeroGradient;
    }
    frontAndBackPlanes
    {
        type            empty;
    }
}


// ************************************************************************* //
