/*--------------------------------*- C++ -*----------------------------------*\
| =========                 |                                                 |
| \\      /  F ield         | OpenFOAM: The Open Source CFD Toolbox           |
|  \\    /   O peration     | Version:  2412                                  |
|   \\  /    A nd           | Website:  www.openfoam.com                      |
|    \\/     M anipulation  |                                                 |
\*---------------------------------------------------------------------------*/
FoamFile
{
    version     2.0;
    format      ascii;
    arch        "LSB;label=32;scalar=64";
    class       surfaceScalarField;
    location    "29";
    object      phi;
}
// * * * * * * * * * * * * * * * * * * * * * * * * * * * * * * * * * * * * * //

dimensions      [0 3 -1 0 0 0 0];

oriented        oriented;

internalField   nonuniform List<scalar> 
1300
(
3.75095
5.62643
-5.03964
3.75095
-5.19929
5.62643
-4.46063
4.46063
-1.08548
1.08548
1.87646
1.87449
-2.97752
2.97752
-2.35848
2.35848
-2.56317
2.56317
-5.24642
5.24642
-5.06796
5.06796
4.6704
-4.6704
-4.23015
4.23015
-1.47582
1.47582
-3.89317
3.89317
3.16981
-3.16981
-2.68625
2.68625
-0.293652
0.293652
-0.553554
4.30451
3.1974
3.1974
-2.12686
2.12686
-4.86201
4.86201
6.21815
-6.21815
7.1898
-7.1898
-2.15015
-3.38996
1.63325
-9.80763
-3.56604
-3.56604
-8.44041
8.44041
-2.81398
2.81245
2.94266
-2.94266
-1.78694
1.78694
-4.40119
-0.0594448
-4.40119
4.4568
0.00383184
4.4568
-1.2096
0.124116
-1.2096
3.9657
-3.9657
0.920741
0.164741
0.920741
3.06459
-3.06459
-1.87711
3.75357
1.87384
-1.87184
6.17635
-1.87911
3.75361
-5.91036
5.91036
-3.21583
0.238306
-3.21583
2.77067
0.206852
2.77067
-6.68925
6.68925
-2.47704
0.118567
-2.47704
2.26211
0.0963613
2.26211
2.86163
-2.86163
-2.66133
0.0981543
-2.66133
2.45607
0.1071
2.45607
0.353553
5.27288
-5.97998
8.79244
-5.27288
0.026459
5.20845
0.0379702
5.20845
-5.10586
0.0378941
-5.10586
5.01191
0.0560527
5.01191
4.76254
-0.0921351
4.76254
-4.78433
0.113929
-4.78433
-2.84287
-4.83444
-4.92601
0.695853
-4.92601
-1.47673
0.000910102
-1.47673
1.43018
0.0456312
1.43018
-3.55038
3.55038
-4.25699
0.363819
-4.25699
3.12439
0.0454209
3.12439
1.86854
1.88241
5.61949
-5.61949
2.44969
-2.38015
-0.306099
-2.38015
-3.05798
-4.13181
3.05798
-0.371735
-0.563328
0.269676
-0.563328
3.15918
0.0382168
3.15918
2.32425
0.131822
-2.32425
0.197393
3.21475
-3.21475
1.51008
0.616777
1.51008
-5.56804
5.56804
4.95286
0.0590478
-4.95286
0.0908545
6.15646
0.0616894
6.15646
-6.19956
-0.0185851
-6.19956
2.05613
-5.44609
-4.0412
3.73574
0.494413
-3.73574
0.1697
2.9125
0.0301553
2.9125
-2.9219
2.9219
-2.98278
0.0401234
-2.98278
-2.18946
0.402515
-2.18946
1.48374
0.303199
1.48374
-4.27504
-0.126151
-4.27504
-4.38862
0.131636
4.38862
0.0681776
1.05082
-1.05082
-1.32003
0.110433
-1.32003
-4.11278
-0.162251
4.11278
-0.147085
-3.8444
-0.121297
-3.8444
-3.02336
0.0405767
3.02336
0.0412285
3.11238
0.046805
-3.11238
0.0477904
-1.87084
3.75325
-1.88011
3.75395
-5.52696
-0.383395
-5.52696
6.21536
-0.305001
6.21536
3.55114
0.342026
-3.55114
0.335312
2.59089
0.179779
2.59089
-6.67342
-0.0158299
-6.67342
6.63843
0.0508275
6.63843
2.50049
0.0903981
-2.50049
0.0234523
2.22209
0.0400274
2.22209
2.8684
-0.00676795
2.8684
-2.86248
0.000855458
-2.86248
2.80397
-2.80397
2.73689
0.0670816
-2.73689
0.0755569
-11.1328
11.1142
-0.0350805
-11.0977
5.17337
5.17337
4.19354
0.569001
4.19354
-4.99837
0.214038
-4.99837
2.21818
-6.25938
4.62653
-7.46939
4.56553
-14.3732
3.37504
-8.20948
6.19113
-6.19113
5.66324
0.527897
-5.66324
0.73723
-1.50188
0.0251566
-1.50188
-2.9403
-0.610082
-2.9403
4.20759
-0.657216
4.20759
-3.02936
3.02936
-3.07832
0.0489561
3.07832
0.0460668
2.26398
-0.0418976
-2.26398
-0.116167
0.744318
0.176423
-0.744318
0.18099
3.43461
-0.219854
3.43461
-3.01813
-0.196625
-3.01813
-1.50941
0.00752259
1.50941
0.000677384
-5.81614
0.248099
-5.81614
-11.1907
0.0930201
-11.1528
-6.10654
-6.10654
2.33386
11.1263
-2.88506
0.0225743
2.88506
0.0274438
2.9765
0.0528614
-2.9765
0.0545971
-2.86476
0.0607915
2.86476
0.0571456
-2.56707
0.377611
-2.56707
-1.06818
1.06818
-1.24818
0.180006
1.24818
0.235558
1.28877
-0.237942
1.28877
1.37914
0.0510474
-1.37914
0.0591067
-3.73451
-0.109893
-3.73451
6.45437
-0.239015
6.45437
-2.91379
-0.104335
2.91379
-0.0453972
-0.0333359
11.1475
-5.14003
0.0341745
5.14003
-11.2092
11.2434
-3.24066
0.67359
3.24066
0.952882
5.28925
0.278787
-5.28925
0.290883
6.4883
0.150125
-6.4883
0.297167
-2.448
-0.492297
-2.448
-4.93857
-0.588392
4.93857
-0.730976
-11.4754
-0.202293
11.6777
-11.4193
6.01843
0.138028
-6.01843
11.3814
-0.985911
-0.0649115
0.985911
0.0822647
1.59939
-0.310625
1.59939
3.62865
-0.194043
-3.62865
-0.105858
-6.60217
-0.0712576
6.60217
-0.147795
-2.00805
-0.439945
2.00805
-0.408665
-4.26694
4.30515
1.90941
-1.46491
-3.98118
-5.59672
1.85192
1.90133
4.30161
-9.24961
-5.12356
-9.07991
7.26703
-6.97615
-9.27495
9.18281
7.59418
-7.71548
-5.78531
5.83137
6.4816
-6.44037
1.87895
1.87462
7.91112
-7.67281
-15.6574
15.274
7.16026
-7.04169
15.7718
-15.7877
-17.8398
17.9899
-5.73141
5.82956
-6.71579
6.71665
-6.8988
6.85341
-1.69363
-5.77576
13.2048
-12.509
6.81593
-7.12203
-8.49558
8.8594
3.38236
0.922789
3.42917
-1.88233
3.76128
-1.87128
3.78069
4.43092
-6.12455
1.82846
-5.80964
3.76008
3.05585
-3.38835
-2.20837
-5.91804
5.9482
-5.82238
5.87953
8.91731
-8.97675
-1.88501
3.75964
-1.86894
3.77027
-3.42525
-2.36006
3.37983
0.921777
7.46226
5.74258
-7.95667
-1.12324
-7.81933
7.62529
-8.09191
7.89529
-0.442667
5.82098
-5.37831
4.41934
-1.5578
7.37877
5.70924
5.92328
5.86708
-5.5883
1.10907
-6.48738
-6.39652
-2.55092
2.66135
2.50604
-2.3413
5.96162
1.63256
5.81454
-5.55362
-2.16186
-5.66351
3.82116
2.01021
3.87012
4.07618
2.40542
4.11675
3.03092
-3.03544
0.0045177
-3.05619
6.08711
0.724203
-5.41625
-4.49447
4.91991
2.99121
5.12676
-5.48981
-2.183
-5.1545
-9.53755
-6.11989
-10.1259
10.102
5.17208
9.79697
-11.9634
11.8156
4.1276
3.03265
4.22396
-4.79808
-2.24361
-4.77462
11.7064
-2.64964
-9.05673
-10.2904
-7.54936
10.2396
5.53225
10.8839
7.10601
11.1811
4.47991
7.22645
-10.0122
2.4628
-3.87244
-1.85897
-3.79688
3.70338
2.12619
3.81048
-4.21136
-2.50443
-4.18878
-4.27721
-2.6216
4.28397
2.43267
-4.35995
-3.73197
4.46428
2.38912
4.7964
-9.91996
3.41307
-9.18883
-9.43156
-3.07743
-8.69433
5.58454
1.38427
-6.96881
-0.540012
8.55803
-5.50218
6.34966
-3.96515
-3.15688
-4.08132
-6.78689
-1.70869
-6.65525
-8.88233
8.39003
-9.19207
8.53485
12.7148
-5.71117
-7.00366
-3.96796
-2.47241
3.92017
-0.490998
-3.7118
3.71632
0.0494759
3.83017
4.75295
4.26196
-3.88731
-1.93508
-3.83271
3.83333
2.04619
3.89413
6.72514
2.19217
6.72897
-6.43715
-2.5396
-6.56331
9.09005
-8.68753
2.93043
-2.92291
5.27297
2.62231
-5.05312
-2.76621
6.16896
-3.10252
-3.06644
-12.213
10.5629
1.65002
-4.8342
-0.41486
-0.121208
-5.50023
-3.77472
5.3863
0.536976
11.0999
7.32521
-5.51332
5.76142
6.16435
6.2234
-0.173127
5.84254
-5.16895
5.35261
-2.4549
-2.89771
5.30348
-5.46573
-1.25983
-5.31692
4.05709
0.34881
1.73669
-1.46701
-2.01393
-0.536991
-1.95482
1.48408
1.02196
1.6605
0.973634
1.68772
-2.93781
0.529466
2.40834
-1.96417
-1.81184
-3.69113
-1.01215
4.70328
5.56005
2.06524
-5.45419
-0.209321
2.72933
-2.6837
-0.809157
-2.88197
2.09021
-2.89936
-3.57381
-1.89753
5.47134
-3.3708
-0.461909
3.31794
0.552181
-3.8252
-2.09285
3.78507
0.331678
-3.12411
6.19002
-3.06591
-5.05919
2.52909
3.55802
4.5393
-4.79035
2.44641
2.34394
-1.23233
4.21612
0.910641
4.3959
-6.7221
4.5391
5.72314
3.13625
-6.06517
0.91067
-5.81143
8.46922
-7.26599
-1.20323
4.11363
4.35559
7.18667
5.52816
-5.75325
12.9399
-1.13073
-6.13527
6.94215
-3.8059
4.74435
-8.55025
-10.2725
4.13725
-9.22489
10.9625
-1.73758
-3.6136
-8.34977
12.8385
-1.20818
-11.6303
8.58879
-4.20287
-4.62429
8.82716
-6.8525
6.8679
-1.92634
-4.94156
-10.1022
-5.68548
10.1734
1.64214
-10.6357
13.0985
-3.40925
3.22924
0.994723
3.26927
3.26972
-5.40733
2.13761
3.58278
-5.50912
2.11917
-7.5265
-7.73844
13.1052
-5.36674
-10.8159
-10.3551
-0.460786
2.5863
10.5122
-9.69231
7.34045
2.35185
3.31041
0.583711
-3.3775
-0.419385
0.275448
4.55858
-4.83403
4.08593
4.21775
3.40845
1.15013
3.83951
2.10869
-3.86695
-0.321832
-4.14314
1.52154
-1.71047
-3.64362
5.16516
-4.07587
0.432255
-2.72832
-3.52196
6.25027
-4.58729
3.04026
3.14976
5.08645
-4.90863
1.38668
-2.40467
-2.50396
2.68919
-4.39966
1.93863
3.22653
4.32776
0.59579
7.34707
5.75811
-8.73134
-0.457495
11.5007
-10.3775
2.82193
8.35913
-10.1624
-0.192696
-8.88703
0.137793
-5.63997
-6.83101
5.06417
-6.77286
-3.48608
6.13631
0.592659
-6.20449
-0.450761
-6.02941
-2.85292
-6.46936
-3.06358
-6.12849
-8.81683
-1.65147
-7.16537
6.73857
-6.67492
-3.45102
7.4059
1.12896
-7.40748
7.34257
-7.48912
7.17849
0.0944998
3.62182
4.35646
1.88404
-2.38949
4.27353
-5.06393
7.25609
-8.5186
3.45467
4.02475
-6.56434
-4.49385
5.04662
4.04343
5.34982
8.96775
-10.4888
1.52103
-10.8214
12.1403
-1.31884
-16.6108
5.78934
-7.64301
2.66959
0.260841
2.69475
0.668334
2.41562
-3.08395
-2.25458
-2.2539
-2.33074
-3.39718
5.72791
1.1505
-3.39766
2.24716
-3.4754
4.62589
-0.072646
-3.32501
5.26844
-2.85283
5.52928
-3.54804
1.98124
3.31614
5.65575
-2.33961
4.32807
-1.70575
1.83532
-4.17493
-1.56186
-2.98354
5.10973
-3.26673
3.69898
-0.275696
3.97468
-4.08092
0.9784
-0.672469
3.54528
3.74267
4.28217
-3.13203
2.95921
-4.66496
-1.21572
-4.06917
-0.842648
-0.288694
-3.80294
4.09164
6.06781
-6.3565
-5.26193
9.58038
-4.31845
7.72932
-5.40562
-2.32369
-4.28003
-4.40751
3.90242
1.94012
9.66944
0.212908
-5.61853
-4.95604
-4.00316
3.21826
2.13434
-1.94108
3.5911
2.06229
-0.325595
0.583428
1.07708
1.8549
-1.27148
0.208949
1.64595
-1.25807
1.99839
0.730938
-2.04944
0.094617
-1.3948
3.48501
1.01354
-2.0355
0.764023
1.04834
-3.50324
4.82826
-2.48359
-2.34468
5.8766
1.15618
-3.63976
4.16074
-3.81193
2.3257
-3.33785
-1.31406
-5.126
-3.49344
-2.51034
4.7575
-3.21757
5.28281
1.18369
-5.07349
6.25718
-3.56306
1.66553
-3.05603
3.78697
-1.06283
-1.9932
2.77559
2.69576
-2.92218
0.0402017
-0.146589
2.31601
-2.4626
-0.583353
-2.54753
-4.57151
4.90318
-2.10745
4.55386
2.16608
-1.91433
6.46819
1.81156
-3.72589
-3.24763
-3.70954
-1.38195
3.15736
-0.519151
-4.25547
-5.46071
4.16507
0.230824
-6.88962
7.7092
-0.819571
-3.89842
-0.640685
4.75432
-6.01351
0.504386
-3.89434
3.81486
4.7255
4.95632
-11.4296
-0.200745
-6.25749
1.17449
-7.43198
5.53008
-3.6315
7.76875
-10.4374
6.98635
-9.30842
6.56552
-0.866462
6.21494
-4.07734
2.84179
-8.52727
-6.88513
5.51656
-2.4839
6.51128
-2.93401
9.44529
-6.34326
4.79555
4.64974
-0.982704
-3.09861
-4.9243
3.9416
-0.128757
3.14051
4.97477
-2.86608
4.65294
2.25116
-4.65583
-2.14851
-6.4963
1.84047
-3.34653
-1.91406
3.75453
3.1724
3.75611
1.25056
-3.33672
8.82661
-9.2874
-3.45987
-3.37115
4.65645
-0.714848
4.14041
-7.51156
-1.49956
4.88675
-0.823631
-4.06312
0.824423
-4.3105
1.65253
-5.96304
5.12033
-5.57109
2.19888
-9.84189
-5.2086
-5.12633
-2.24037
-5.24875
-7.64522
5.40485
-1.85587
5.48669
-8.64427
7.82064
-3.49599
8.90083
-5.43133
-1.03803
5.83999
1.3385
10.2393
0.180374
-4.67423
-1.91339
3.99313
-2.07975
1.30488
-3.62257
0.370566
2.45402
3.42258
-6.51111
-0.0532335
-4.72746
-3.92955
7.97297
5.65084
11.7186
1.22986
9.17161
-1.19864
10.4015
4.15118
4.38674
-3.06014
4.58117
1.03149
4.48617
-0.844674
2.82592
1.85007
1.85098
0.832715
2.29598
1.44669
3.27438
0.190426
-2.06347
4.63842
-8.64157
-0.980114
-8.07257
1.11024
5.72753
-4.6173
3.13786
-1.00352
1.05811
0.101036
-1.62808
1.52705
-2.79667
-1.95368
-0.307725
-1.59883
2.36285
1.88618
-2.05513
-0.741543
0.311942
-3.80538
3.0259
-2.9857
-0.289947
5.96724
-2.73901
0.276414
-1.07349
-2.27111
-2.8081
2.71348
6.17631
0.291882
3.11039
5.19507
3.10222
0.236141
3.95241
-5.68999
-3.57409
-5.89074
-0.360658
4.39366
1.45311
9.05909
6.10286
5.38801
-2.12355
-11.4109
6.57635
-1.99518
5.25751
-1.19439
-4.76865
4.97039
2.2857
-5.56305
-0.00803761
-4.77668
-6.77187
-0.539338
8.35998
-9.7
8.66197
5.80905
1.35632
-4.41265
-0.713681
4.23264
0.154093
10.5556
-1.12462
-6.82255
7.94716
-4.60292
3.6228
0.843574
2.74753
2.37062
1.36711
-5.45544
-10.0727
-1.91254
-1.5907
-4.25721
0.446065
-2.33225
6.25835
-2.63554
3.93465
5.31162
6.36973
-2.15624
-4.20027
6.47469
-2.54003
3.8297
)
;

boundaryField
{
    wall-4
    {
        type            calculated;
        value           uniform 0;
    }
    velocity-inlet-5
    {
        type            calculated;
        value           uniform -3.75095;
    }
    velocity-inlet-6
    {
        type            calculated;
        value           uniform -5.62643;
    }
    pressure-outlet-7
    {
        type            calculated;
        value           nonuniform List<scalar> 8(5.03964 5.19929 5.54011 8.17438 7.67731 6.09733 6.84471 7.94057);
    }
    wall-8
    {
        type            calculated;
        value           uniform 0;
    }
    frontAndBackPlanes
    {
        type            empty;
    }
}


// ************************************************************************* //
