/*--------------------------------*- C++ -*----------------------------------*\
| =========                 |                                                 |
| \\      /  F ield         | OpenFOAM: The Open Source CFD Toolbox           |
|  \\    /   O peration     | Version:  2412                                  |
|   \\  /    A nd           | Website:  www.openfoam.com                      |
|    \\/     M anipulation  |                                                 |
\*---------------------------------------------------------------------------*/
FoamFile
{
    version     2.0;
    format      ascii;
    arch        "LSB;label=32;scalar=64";
    class       volVectorField;
    location    "29";
    object      U;
}
// * * * * * * * * * * * * * * * * * * * * * * * * * * * * * * * * * * * * * //

dimensions      [0 1 -1 0 0 0 0];

internalField   nonuniform List<vector> 
918
(
(0.985168 -0.000495067 0)
(0.00500836 2.96625 0)
(-0.0515994 1.32593 0)
(0.979699 0.00215083 0)
(0.0115766 1.3534 1.32185e-19)
(-0.00703944 2.94879 -2.04166e-18)
(0.836186 1.17974 6.3726e-19)
(0.361316 0.165358 -1.12579e-20)
(0.999905 -0.00029338 0)
(0.065007 0.856518 0)
(0.0136028 0.666299 0)
(0.733485 -0.00908287 0)
(0.0111135 2.93033 0)
(0.00250878 2.79461 0)
(-0.0174953 3.15879 9.86479e-19)
(-0.0697922 1.28938 1.97946e-19)
(0.450066 0.060986 7.176e-19)
(0.188831 1.20837 5.32716e-19)
(0.962775 0.00500772 0)
(-0.044645 0.767099 0)
(0.0901598 0.202986 -5.4345e-19)
(1.00198 -0.00498552 0)
(1.00021 -0.00980494 0)
(0.975708 -0.00644058 0)
(0.604896 -0.0448629 0)
(0.0162646 2.63742 0)
(-0.014906 2.91006 7.21401e-19)
(-0.120914 1.21313 0)
(-0.158713 1.46326 0)
(-0.0750757 1.27698 0)
(-0.0174789 2.21313 0)
(0.0851704 1.43098 -1.04301e-19)
(0.0380505 1.0639 0)
(-0.0206191 2.98759 -7.20932e-23)
(-0.0166946 3.0053 1.58687e-18)
(0.00210605 3.0002 0)
(0.870169 -0.00933291 0)
(0.404799 0.941154 3.58908e-20)
(0.816768 1.19645 -8.55932e-19)
(0.966608 1.03434 8.25694e-19)
(0.685616 1.29031 -1.48033e-19)
(0.683079 1.279 8.33562e-19)
(0.402547 0.257615 1.09835e-20)
(0.389664 0.143484 0)
(1.15224 0.558576 0)
(0.363322 0.258208 5.05172e-20)
(0.31697 0.169192 -5.24266e-20)
(0.919642 -0.0075036 0)
(1.00028 0.000139728 0)
(0.999913 0.000334162 0)
(1.00364 -0.00778608 0)
(1.00096 -0.000937509 0)
(1.00017 2.22089e-05 0)
(0.0831573 1.78397 -3.88806e-19)
(0.037421 1.0099 0)
(0.0803755 0.928206 0)
(0.0235862 0.942822 0)
(0.0281193 0.786307 0)
(0.0276307 1.9935 0)
(0.0074142 0.810929 0)
(-0.000155903 0.695272 0)
(-0.0076696 0.765882 0)
(-0.0123409 0.634078 0)
(0.834761 -0.0142297 0)
(0.852995 0.0261288 0)
(0.767751 7.91479e-05 0)
(0.82736 0.0338995 0)
(0.702123 -0.0152949 0)
(0.0146962 3.0004 7.50707e-19)
(0.0115181 3.00796 0)
(0.00612775 3.00281 0)
(0.0135445 2.99734 8.42271e-24)
(0.007986 2.95847 -1.11574e-18)
(0.0144748 2.98203 0)
(0.0107983 2.90365 0)
(0.0250462 2.93045 1.57013e-24)
(0.00435158 2.82483 0)
(0.0311309 2.91585 0)
(-0.00593042 2.7453 0)
(0.309456 3.55688 0)
(-0.132004 3.6386 0)
(0.140225 3.24936 9.18038e-19)
(-0.0122832 2.98369 0)
(-0.258554 2.05176 0)
(-0.110758 1.52896 -1.9504e-19)
(-0.131806 1.50522 1.24328e-19)
(0.526314 0.151676 -2.47545e-19)
(0.447942 0.0351224 -2.39232e-19)
(0.508986 0.178495 -7.47332e-19)
(0.432563 0.0840366 -4.97546e-19)
(0.215085 0.917328 0)
(0.269513 1.34703 -5.71165e-19)
(0.382216 1.29367 9.41793e-19)
(0.987493 0.00849914 0)
(0.942034 0.00584543 0)
(1.0003 0.000570452 0)
(1.00287 0.00929825 0)
(1.00304 0.00843488 -1.61713e-18)
(0.991922 0.00971499 1.22111e-18)
(-0.0487176 0.838048 0)
(-0.0194984 0.671811 0)
(-0.120001 1.17381 0)
(-0.0504108 0.940292 0)
(-0.0265855 0.887076 0)
(0.138761 0.211131 1.6804e-19)
(0.192493 0.189452 0)
(0.993519 -0.00840982 0)
(0.95437 -0.00651393 0)
(0.783955 0.0368708 0)
(0.735564 0.0457389 0)
(0.6645 -0.0332509 0)
(0.953071 -0.00441495 0)
(0.666297 0.0606186 0)
(0.50202 -0.0207497 9.91735e-19)
(-0.0363476 2.86455 4.30411e-19)
(0.0423571 2.90917 0)
(0.0549331 2.88451 0)
(-0.00449115 2.69858 0)
(-0.0133189 2.98513 6.70344e-19)
(-0.0180781 2.89517 0)
(-0.0154174 2.98811 -2.10519e-18)
(-0.0133518 2.9252 7.24775e-19)
(-0.258212 1.46024 0)
(-0.258427 1.62249 0)
(-0.0108946 1.38288 8.19703e-21)
(0.0518366 1.31154 0)
(-0.0308507 1.12072 0)
(0.937498 -0.00777195 0)
(0.855486 -0.00958617 0)
(0.863944 0.00685215 0)
(0.948842 -0.00807815 0)
(0.883396 -0.00818071 0)
(0.517505 1.13528 -5.31085e-20)
(0.56742 1.1868 0)
(0.367745 0.884967 1.38255e-20)
(0.309872 0.744979 0)
(0.926245 1.07237 -2.36115e-19)
(1.03995 0.874714 4.80954e-19)
(0.376102 1.38708 0)
(0.537846 1.35573 0)
(0.544042 1.31538 0)
(0.105689 0.17688 -1.87823e-19)
(0.442494 0.237776 0)
(0.416279 0.127547 1.41629e-19)
(1.01058 0.928932 0)
(1.0777 0.776839 0)
(1.10335 0.719327 -4.10119e-19)
(1.13176 0.61817 0)
(1.17825 0.402769 5.64892e-20)
(0.957338 -0.00876215 0)
(0.962276 -0.0100756 0)
(0.901364 -0.00811641 0)
(0.984121 -0.00920975 0)
(0.97456 -0.00935115 0)
(0.936974 -0.00638225 0)
(1.00019 0.00231954 0)
(1.00091 0.00143144 0)
(0.999904 0.000844412 0)
(0.0340096 2.04373 2.31992e-19)
(0.121251 1.7237 0)
(0.015319 2.16251 1.13673e-19)
(0.0497427 1.84266 -1.83292e-19)
(0.129258 1.20157 -4.40346e-19)
(0.0432249 1.08181 0)
(0.115813 1.07369 0)
(0.0297366 0.894407 0)
(0.0154139 0.722692 0)
(-0.0103438 2.18211 1.54032e-21)
(0.0308419 1.98581 0)
(-0.015834 2.15421 1.12789e-19)
(0.0156498 1.99787 -3.0269e-21)
(0.0108382 0.85965 0)
(0.00107065 0.836881 0)
(-0.0013801 0.692031 0)
(-0.0117198 0.74992 0)
(-0.023886 0.622762 0)
(0.931693 0.00729166 0)
(0.840001 -0.0152738 0)
(0.92372 -0.000517487 0)
(0.838185 -0.0109494 0)
(0.813703 0.00405402 0)
(0.903719 0.0185969 0)
(0.882001 0.0216469 0)
(0.790427 0.0027135 0)
(0.00581012 3.06492 -6.73852e-21)
(0.0165204 3.05779 0)
(0.0146527 2.9691 0)
(0.00861964 2.87634 0)
(0.927326 3.97476 0)
(1.24256 3.30696 9.86835e-19)
(0.0704999 3.07592 0)
(-0.0279388 2.90644 0)
(-0.339674 1.6597 0)
(-0.339209 1.99258 0)
(-0.302147 1.82311 0)
(-0.10538 2.24817 -5.39981e-20)
(-0.256806 2.17347 0)
(-0.166761 2.122 0)
(-0.0812033 1.89376 -1.10419e-20)
(-0.12531 1.91812 -9.46318e-20)
(-0.138952 1.72777 -1.216e-19)
(-0.125829 1.7379 0)
(0.554327 0.124101 3.66657e-19)
(0.465113 0.0108115 -3.59256e-19)
(0.261276 1.55193 0)
(0.262776 0.692786 -2.40376e-19)
(0.177182 1.6386 -8.07541e-19)
(0.225977 1.16621 8.09598e-19)
(0.902496 0.00669786 0)
(0.96763 0.0109805 0)
(0.97472 0.0107217 0)
(0.923638 0.00657977 0)
(-0.00311192 0.744687 0)
(-0.0232368 0.772182 0)
(-0.031242 0.644398 0)
(0.307685 0.250605 4.62604e-19)
(0.250296 0.227139 -5.50267e-19)
(0.263817 0.180869 0)
(1.08183 0.0867817 6.19314e-21)
(1.06477 0.0405827 0)
(0.994723 0.0407156 0)
(0.889711 -0.00219217 0)
(0.577888 0.0952831 0)
(0.607344 0.0718066 -1.59253e-18)
(0.480301 -0.00168084 6.03545e-19)
(0.00925752 2.9817 5.07994e-19)
(-0.0322935 2.86659 4.7594e-20)
(0.00366354 3.05027 -1.44551e-20)
(0.0200839 3.04338 5.17203e-19)
(-0.0149827 2.99656 2.39939e-20)
(-0.0129633 2.94943 -9.68992e-23)
(-0.0172791 3.01198 -4.50966e-19)
(0.0148505 3.0239 3.26592e-19)
(0.00736509 3.03686 -5.12582e-19)
(0.931457 -0.00189569 0)
(0.937805 -0.0036994 0)
(0.843281 -0.00889272 0)
(0.956907 0.0115477 0)
(0.943378 0.0126053 0)
(0.882092 0.00641912 0)
(0.91931 0.0153481 0)
(0.92725 0.0141054 0)
(0.839835 0.00530805 0)
(0.721887 1.41441 2.37476e-19)
(0.755595 1.52363 0)
(0.199031 0.349931 4.09065e-20)
(0.204246 0.64226 3.29841e-19)
(0.25352 0.716148 -1.91461e-19)
(0.273965 0.553847 3.70818e-19)
(0.315869 0.749197 1.02281e-18)
(0.121799 0.206458 2.63254e-19)
(0.484689 0.200482 -5.18374e-19)
(0.464338 0.216027 1.35375e-19)
(0.423557 0.10835 2.65924e-19)
(1.167 0.459912 2.14013e-19)
(1.17871 0.254274 2.19912e-19)
(0.0129643 2.20563 7.40797e-20)
(0.04245 1.90246 0)
(0.954704 0.029188 0)
(0.931095 0.012591 0)
(0.853281 -0.0149929 0)
(0.0112795 3.07452 0)
(0.0199334 2.94425 9.09273e-19)
(0.0164512 2.95644 0)
(0.00622012 2.85058 -9.01896e-19)
(0.00631269 3.09199 2.17478e-19)
(0.00703936 3.08224 0)
(0.788886 1.82665 -2.14664e-19)
(1.25037 2.50535 5.81121e-19)
(0.771071 1.96645 -1.41185e-18)
(0.020289 2.98255 -3.99055e-19)
(0.0359599 3.00287 0)
(-0.0335777 2.87927 0)
(-0.0463844 2.1065 8.1969e-22)
(-0.0759107 2.03933 7.92866e-21)
(-0.0137651 1.97057 1.9374e-21)
(0.274768 1.35903 7.84851e-19)
(0.215844 0.473352 -5.40016e-19)
(0.0649632 1.96895 5.52191e-19)
(0.138179 1.85844 -6.77768e-19)
(0.176611 1.45946 8.68332e-20)
(0.00587549 3.11829 -1.1677e-18)
(0.0121116 3.11907 1.27736e-18)
(-0.00908438 2.98062 5.96175e-19)
(-0.003918 2.97741 -5.41187e-19)
(-0.0215715 2.88112 -6.07195e-19)
(0.00847023 3.09911 -1.6002e-18)
(0.00162767 3.1057 1.6095e-18)
(0.258638 0.661859 0)
(0.216392 0.650744 -6.72119e-19)
(0.103052 0.219162 3.0039e-19)
(0.335679 0.871282 7.89573e-19)
(0.177703 0.246861 -1.21274e-18)
(1.16933 0.173483 -1.727e-20)
(1.17944 0.308279 0)
(1.15726 0.121103 7.63399e-20)
(-0.00876684 2.2026 1.03076e-21)
(0.000806586 2.21101 0)
(0.0314474 1.9566 0)
(0.336653 1.25878 -2.84276e-19)
(0.35889 1.08129 -6.08451e-19)
(0.189368 0.340816 1.06145e-18)
(1.00586 -0.0108789 0)
(1.00766 -0.00767744 2.96881e-19)
(-0.264801 1.4454 0)
(-0.266866 1.31359 0)
(1.0022 0.00348693 1.78391e-21)
(1.00372 0.00946131 6.08301e-19)
(-0.119528 2.28112 6.77497e-20)
(-0.108026 2.3257 0)
(0.0364766 3.1797 2.03828e-19)
(0.396787 3.49402 0)
(1.13026 0.651985 2.34496e-20)
(1.01301 0.0129596 -2.14658e-21)
(1.02118 -0.0105047 0)
(1.00172 0.000156503 8.37517e-23)
(0.102348 1.35442 0)
(0.145552 2.57661 0)
(0.0798878 1.23764 0)
(-0.000299718 2.62047 -1.19439e-19)
(-0.0272272 2.58436 -1.25596e-19)
(1.00534 0.0288516 2.7442e-21)
(1.06058 0.000775526 0)
(1.08675 0.0143992 0)
(-0.328446 1.99659 0)
(-0.233946 2.54353 0)
(-0.140026 1.07425 0)
(0.276564 1.463 -3.52004e-19)
(1.01124 -0.00971763 0)
(1.00935 -0.0149729 0)
(1.00242 0.000735953 3.78843e-19)
(1.00548 -0.00484849 -4.45778e-19)
(1.00117 -0.00104588 0)
(-0.38295 1.80521 0)
(-0.330117 1.47781 0)
(-0.333161 1.67225 0)
(-0.152537 1.05226 0)
(-0.234556 1.16131 0)
(-0.146532 1.04448 0)
(1.03419 -0.00679688 0)
(1.02094 0.0156217 -9.72152e-22)
(0.790511 1.25533 4.34829e-19)
(1.00229 0.000343034 -3.77608e-19)
(1.00408 0.00523721 4.43755e-19)
(1.00116 0.00203802 0)
(1.01287 0.0102179 3.72556e-19)
(1.00805 0.00827298 -4.56513e-19)
(1.00862 0.0146699 0)
(-0.221924 2.54446 0)
(-0.171076 2.46032 -3.04282e-19)
(-0.186511 2.44683 2.33826e-19)
(1.20396 0.261143 1.41653e-19)
(1.14137 0.0845381 0)
(0.0461168 3.0778 -6.33701e-19)
(0.0660482 2.85319 -4.85976e-20)
(0.143283 3.19447 9.97568e-19)
(0.138104 3.2233 -6.1654e-20)
(0.136694 3.23621 0)
(0.0197427 3.13777 1.49255e-19)
(0.0772114 3.16096 6.20719e-19)
(0.0699807 3.1872 -2.84939e-19)
(0.0231303 3.1292 0)
(0.660804 0.305619 0)
(0.576431 0.369407 0)
(1.10253 0.680633 -1.20118e-19)
(1.09945 0.812134 -3.58492e-20)
(1.15885 0.570124 0)
(1.1885 0.51312 0)
(1.01619 0.0132518 -6.91712e-19)
(1.01498 0.0142548 -1.5626e-21)
(1.02507 -0.0100674 0)
(1.02308 -0.0122085 0)
(1.00649 0.00256232 0)
(1.01038 0.00365391 0)
(1.00438 0.00190311 0)
(1.00978 0.00604347 0)
(1.00794 0.00586419 0)
(1.0045 0.00467531 0)
(0.0930916 1.3504 0)
(0.0867615 1.31744 0)
(0.1153 1.38251 0)
(0.127955 1.40584 0)
(0.145092 2.59974 0)
(0.187123 2.66137 -2.74608e-19)
(0.1047 2.65714 0)
(0.0847418 2.66053 4.59513e-20)
(0.0394234 2.67823 8.43292e-20)
(0.1003 1.20772 0)
(0.0694173 1.0945 0)
(0.0595633 1.2835 0)
(0.0113497 1.2418 0)
(0.0118547 1.97377 1.47287e-19)
(-0.040985 2.60541 -1.72502e-19)
(-0.0152335 2.66213 -1.8719e-19)
(-0.0254937 2.66427 0)
(-0.0640987 2.61793 3.56919e-19)
(-0.0597816 2.60327 2.22067e-19)
(-0.00975647 1.98343 -1.06643e-19)
(-0.042515 2.45314 2.40434e-19)
(-0.00564689 2.44723 2.21189e-19)
(1.01434 0.0346817 6.97325e-19)
(1.00879 0.0182279 2.78627e-21)
(1.00589 0.041857 -7.04363e-19)
(0.98658 0.023007 9.01937e-19)
(1.06143 0.00511701 0)
(1.04727 -0.00990244 0)
(1.08606 0.0231727 0)
(1.06919 0.00696651 0)
(1.06572 -0.00427907 0)
(1.12468 0.0742106 0)
(1.09842 0.0364588 0)
(1.09977 0.0276492 0)
(-0.198953 2.34683 1.78301e-20)
(-0.349413 2.2107 0)
(-0.266927 2.22726 0)
(-0.230718 2.60369 -1.68143e-19)
(-0.204199 2.55517 3.6469e-21)
(-0.365816 1.94858 -2.88537e-19)
(-0.350446 1.81975 2.83715e-19)
(-0.287139 1.43008 0)
(-0.33215 1.45506 0)
(-0.34946 1.49493 0)
(-0.0870089 1.05631 0)
(-0.0363871 0.933363 0)
(0.372461 1.47597 6.56379e-19)
(0.405681 1.48686 2.70207e-19)
(0.59371 2.44823 -1.80449e-19)
(0.405647 2.54122 5.06263e-19)
(0.353868 2.08424 -1.27974e-20)
(1.02083 -0.00835194 0)
(1.01541 -0.00989804 0)
(1.01482 -0.0156243 0)
(1.00756 -0.0013753 0)
(1.00499 -0.00102989 0)
(1.00774 -0.00487341 0)
(1.0092 -0.00387188 0)
(1.01412 -0.00456734 0)
(1.02164 0.0157674 6.6844e-19)
(1.0183 0.0157099 -8.59287e-19)
(1.02209 0.0176025 -6.71246e-19)
(1.01965 0.0163317 8.4112e-19)
(0.75876 1.30514 0)
(0.692194 1.35957 4.92875e-19)
(0.868091 1.20043 2.72306e-19)
(0.911247 1.1579 -3.62381e-19)
(1.16049 2.61269 -2.81203e-19)
(0.824006 0.0960443 3.91088e-19)
(1.14134 0.10258 0)
(1.18442 0.186716 -1.10582e-19)
(1.16936 0.157285 -4.55043e-21)
(1.00292 0.129971 0)
(0.139529 2.96326 2.62804e-19)
(0.116969 2.86916 -8.17685e-19)
(0.0285961 2.36905 5.68861e-19)
(0.0937389 0.0221567 -2.44829e-19)
(0.341711 3.42299 -3.68242e-19)
(0.195958 3.31524 0)
(0.238397 3.35753 4.79572e-19)
(0.248113 3.03619 -1.08629e-18)
(0.342361 3.1949 0)
(0.00694694 3.12069 3.22727e-20)
(0.0180177 3.12942 -3.95452e-19)
(0.0157227 3.12546 5.82046e-19)
(0.0360034 3.13967 0)
(0.0342359 3.15097 0)
(1.21944 2.61233 0)
(0.542934 0.841711 -3.33896e-19)
(1.03114 0.983617 -1.37171e-19)
(0.968667 1.05422 0)
(0.814545 0.957859 1.25051e-21)
(1.05407 0.869948 3.00363e-20)
(0.371223 0.416752 -6.48348e-19)
(0.702809 0.32249 -2.22477e-20)
(0.689582 0.25387 2.93725e-19)
(0.591917 0.397942 2.22085e-20)
(0.511533 0.375254 -9.0079e-19)
(0.671229 0.347296 0)
(0.695118 0.43185 4.89e-19)
(0.701881 0.428951 0)
(0.628845 0.384972 0)
(0.609927 0.315469 0)
(0.781261 0.615058 2.26453e-19)
(1.20036 0.279308 -5.60762e-20)
(1.1957 0.414471 0)
(1.20971 0.363762 0)
(0.767163 0.200322 4.34762e-19)
(0.826464 0.540491 -2.55697e-19)
(0.732635 0.517142 -4.32093e-19)
(0.924474 0.419155 -4.41022e-19)
(1.01998 0.0144332 4.61371e-19)
(1.01796 0.0141404 -4.67445e-19)
(1.01596 0.015659 0)
(1.03559 -0.00644625 0)
(1.02938 -0.00889129 -4.29483e-19)
(1.02709 -0.012598 4.25108e-19)
(1.02515 0.0092997 0)
(1.02372 0.0129713 0)
(1.01141 0.00391805 0)
(1.01433 0.00881167 0)
(1.01507 0.00370807 0)
(1.01416 0.00269708 0)
(0.0707259 1.33639 0)
(0.0635369 1.29427 0)
(0.150939 1.33937 2.29801e-19)
(0.259086 1.46034 1.98161e-19)
(0.150026 1.43545 4.20667e-19)
(0.179868 1.44239 -2.23464e-19)
(0.168957 1.37249 0)
(0.122723 1.58938 1.6821e-19)
(0.112713 1.56107 0)
(0.350952 2.03897 1.85976e-20)
(0.351866 2.36993 3.48706e-19)
(0.182799 1.44097 -1.46776e-19)
(0.260235 1.36234 1.39622e-19)
(0.190731 1.35351 1.11829e-19)
(0.267502 1.30189 1.90005e-19)
(0.232773 1.57416 -1.01148e-19)
(0.256868 1.61615 -1.10726e-19)
(0.0416878 2.27186 5.85374e-20)
(0.0393296 2.66999 0)
(0.0630121 2.41017 -8.07453e-20)
(0.0508144 2.42891 0)
(0.0740422 2.67255 -5.19473e-20)
(0.0497153 2.69912 0)
(0.107844 1.45638 2.55299e-19)
(0.0305036 1.49527 0)
(0.0381926 1.39678 0)
(0.108575 1.39287 -2.82781e-19)
(-0.00461428 2.64739 -2.67203e-20)
(0.0223703 2.69703 -1.21411e-19)
(0.00744945 2.7162 -8.21913e-22)
(0.0933408 1.9445 -1.99255e-19)
(0.0525545 1.68394 6.85808e-20)
(0.0553586 1.07101 0)
(0.0362963 0.963665 0)
(0.0269153 1.57481 -3.18733e-19)
(0.035328 1.44153 -3.07036e-19)
(0.049074 1.5205 3.9205e-19)
(0.0296348 1.59803 0)
(-0.246362 2.46426 7.81814e-19)
(-0.241181 2.61809 -3.07234e-19)
(-0.218861 2.58191 8.18173e-20)
(0.0322867 1.97657 2.40986e-19)
(-0.0974437 2.56433 1.0007e-19)
(-0.04635 2.49504 -3.01894e-19)
(1.02064 0.0202075 -4.56378e-19)
(1.01767 0.0252195 4.58465e-19)
(1.01478 0.0166149 0)
(1.01864 0.0615646 6.46833e-19)
(0.996781 0.0532173 -7.4386e-19)
(0.959677 0.0374815 8.4446e-19)
(1.01759 0.0925608 -8.52855e-20)
(1.04189 -0.00639337 0)
(1.04953 -0.0026319 3.98587e-19)
(1.03811 -0.0106528 -3.99033e-19)
(1.06686 0.0330087 -2.28664e-20)
(1.06137 0.0164359 2.00044e-19)
(1.06167 0.0444261 0)
(1.057 0.0382285 -7.29952e-20)
(1.03387 0.036507 0)
(1.02776 0.0338262 0)
(1.02758 0.0122784 0)
(1.02437 0.0152213 0)
(1.0397 0.0270696 1.51203e-19)
(1.03784 0.0224797 -3.39061e-19)
(1.05157 0.0264039 -1.57562e-19)
(1.04891 0.0262354 -1.76156e-19)
(1.07245 0.0515519 3.32469e-19)
(1.08631 0.0427908 0)
(1.09327 0.0901528 0)
(-0.270045 2.46495 3.27345e-19)
(-0.333356 2.23756 2.59821e-20)
(-0.319006 2.28869 0)
(-0.254098 2.4858 -3.2203e-19)
(-0.23072 2.39273 -4.36775e-20)
(-0.210662 2.46024 6.3599e-20)
(-0.102425 2.62284 -1.80898e-19)
(-0.165062 2.61869 1.91675e-20)
(-0.132398 2.57591 -8.45998e-20)
(-0.1693 2.62387 1.19434e-19)
(-0.115776 2.58497 -7.18724e-21)
(-0.295162 1.70279 -1.92444e-20)
(-0.295805 1.99408 -4.74631e-19)
(0.362808 1.41076 -3.19086e-19)
(0.360207 1.3521 -2.67606e-19)
(0.640179 1.40601 -4.76792e-19)
(0.507393 1.47223 -2.61764e-19)
(0.557593 1.44714 0)
(0.589596 2.4227 1.50142e-19)
(0.656693 2.41259 2.59546e-19)
(0.411119 2.5175 8.04014e-20)
(0.404924 2.55706 -3.00918e-19)
(0.515532 2.51112 3.65878e-19)
(0.547754 2.46168 0)
(0.488235 2.51152 -4.16141e-19)
(0.246841 2.58967 7.65433e-19)
(0.352842 2.56603 -8.09543e-20)
(0.284591 2.64905 -1.10938e-18)
(0.933784 2.3852 3.94529e-19)
(0.829666 2.38657 0)
(1.01106 0.000152084 1.52053e-20)
(1.01522 -0.00551614 -1.23169e-20)
(1.01742 -0.00364006 -2.24061e-19)
(1.01479 -0.00112055 2.25495e-19)
(1.01228 0.000740382 0)
(0.626262 1.27282 0)
(0.645515 1.16367 0)
(0.747386 1.0683 0)
(0.638067 1.13326 0)
(1.18783 2.62875 5.72622e-20)
(1.0783 2.37226 0)
(0.845585 2.20363 -6.46287e-24)
(0.827508 2.46851 0)
(0.92198 2.55549 -1.12816e-19)
(0.958877 2.50962 0)
(0.83595 0.14565 0)
(0.804665 0.136186 1.09989e-19)
(0.925632 0.12171 5.97067e-19)
(0.853516 0.11958 -2.3269e-19)
(0.835862 0.0608112 -7.0174e-19)
(1.05791 0.221772 -4.60965e-19)
(0.976848 0.274615 -1.57073e-20)
(0.909232 0.271135 5.51063e-19)
(0.992311 0.203438 4.33726e-19)
(0.94495 0.161589 -7.72657e-19)
(0.916163 0.170269 9.83117e-20)
(0.942393 0.232972 -2.01316e-19)
(0.920724 0.192859 0)
(0.988155 0.163293 -3.76107e-19)
(1.03511 0.170042 0)
(1.03019 0.196361 0)
(1.09014 0.111701 1.48983e-19)
(1.06178 0.161715 -1.3409e-20)
(1.05218 0.225612 -2.36359e-19)
(1.08525 0.195402 0)
(1.02486 0.0410699 3.50188e-19)
(1.04482 0.0496104 4.2589e-19)
(1.03539 0.0375848 -3.47858e-19)
(1.04715 0.0552816 -2.86021e-19)
(1.02173 0.0641978 -4.55125e-19)
(0.988434 0.133244 0)
(1.00362 0.0873881 0)
(0.973216 0.0517748 -3.03233e-19)
(0.926059 0.0671749 1.22717e-19)
(1.04155 0.0897195 3.98456e-19)
(1.06561 0.111928 -4.40241e-19)
(1.06928 0.141182 3.97836e-19)
(1.03225 0.128915 0)
(1.07286 0.0975454 0)
(1.05974 0.0777432 -1.81046e-19)
(1.05126 0.0850431 -3.23007e-19)
(0.588474 1.09061 -1.8732e-20)
(0.620097 1.41969 1.20218e-19)
(1.16046 2.74454 -5.80538e-21)
(1.22648 3.0848 -4.70273e-20)
(1.25172 2.72709 3.39719e-19)
(1.2824 2.71056 -2.41344e-19)
(1.2108 2.35155 -9.49635e-21)
(1.21362 2.98911 1.00812e-19)
(1.2327 2.95453 -6.87061e-20)
(1.21766 3.23856 -2.27879e-19)
(1.37878 2.97102 3.15238e-19)
(1.36992 2.88927 0)
(0.544495 0.848762 -2.52545e-20)
(0.142642 1.26468 4.36026e-19)
(0.525556 0.47288 4.24652e-19)
(0.361322 0.22823 4.6203e-19)
(0.530341 0.405473 5.06539e-19)
(0.539053 0.491349 -8.08741e-19)
(0.541567 0.495968 6.62329e-19)
(0.495809 0.422608 -2.56495e-19)
(0.426588 0.363313 5.88231e-19)
(0.768803 0.256535 7.52227e-19)
(0.728629 0.290756 0)
(0.72564 0.228916 1.00327e-20)
(0.712431 0.51658 2.53867e-19)
(0.682542 0.490997 -9.31886e-19)
(0.603247 0.488909 1.64187e-20)
(0.620873 0.475283 0)
(0.670664 0.736403 2.30765e-19)
(0.811913 0.767771 1.68967e-19)
(0.741791 0.850033 -2.03088e-19)
(0.854862 0.8004 -6.35356e-20)
(0.886354 0.838398 -3.1099e-21)
(0.894771 0.840569 3.18366e-21)
(0.820749 0.642566 -3.8041e-19)
(0.898919 0.693678 5.9014e-20)
(0.956471 0.70561 0)
(0.945204 0.681222 -7.68033e-20)
(1.00274 0.316004 1.13669e-19)
(1.11298 0.288133 9.93811e-20)
(1.04223 0.258712 1.88371e-19)
(0.982171 0.349042 -2.41141e-19)
(1.02598 0.415564 0)
(1.08088 0.403798 0)
(0.897534 0.350646 4.89245e-21)
(0.837353 0.285769 0)
(0.857152 0.274412 2.71573e-19)
(0.893277 0.27757 -6.37072e-21)
(0.915834 0.422249 1.2188e-18)
(0.872804 0.484113 3.1234e-19)
(0.878068 0.449068 -3.61961e-19)
(0.80912 0.436687 -3.88364e-19)
(0.791296 0.432933 2.4813e-19)
(0.761594 0.417966 -2.43701e-19)
(1.02749 -0.000591157 3.69078e-19)
(1.0202 -0.000158628 0)
(1.0186 0.000705611 2.41721e-19)
(1.02106 -0.00214556 -3.32041e-21)
(1.02235 0.00422426 2.65513e-19)
(1.02043 0.0107918 -5.56308e-19)
(1.02142 0.010199 0)
(1.02091 0.0104028 -1.16656e-19)
(1.01612 0.00739356 2.92619e-19)
(1.01682 0.0101616 -1.46151e-19)
(1.01747 0.00951195 1.07577e-19)
(0.0581987 1.31352 0)
(0.0473691 1.36796 0)
(0.0493446 1.32169 0)
(0.0326634 1.27359 0)
(0.0718656 1.37169 -5.00258e-19)
(0.0873717 1.34074 1.5848e-19)
(0.103571 1.50366 1.06917e-19)
(0.0944262 1.33715 -1.18109e-19)
(0.0305019 1.45667 3.03881e-19)
(0.0303867 1.44723 -2.34774e-19)
(0.0587773 1.35651 -5.38173e-21)
(0.0523802 1.35968 -3.97855e-19)
(0.049145 1.34084 4.52449e-20)
(0.0308138 1.37955 -4.06496e-20)
(0.102064 2.38633 9.22653e-20)
(0.095132 2.42945 0)
(0.160826 2.06674 6.24291e-21)
(0.101667 1.70662 -6.24258e-20)
(0.226634 2.06079 -5.2439e-21)
(0.210848 2.45652 0)
(0.26886 2.40983 -2.57788e-19)
(0.302466 2.40994 1.8399e-19)
(0.229004 2.02123 -1.77366e-20)
(0.147144 2.18673 4.30707e-20)
(0.143761 2.30834 0)
(0.0251765 1.87558 3.26101e-19)
(-0.00470621 2.40592 2.88735e-19)
(-0.0382608 2.15266 0)
(-0.000974649 2.46432 -1.3678e-20)
(0.0274639 2.31575 -1.44652e-19)
(0.131184 1.43987 -5.59884e-20)
(0.149347 1.35063 9.66973e-19)
(0.103294 1.41168 -3.22397e-19)
(0.129105 1.47194 -2.66351e-19)
(0.125001 1.49208 0)
(0.100756 1.37692 0)
(-0.0645621 1.01914 -4.10231e-19)
(0.0129976 1.24119 1.30996e-19)
(0.0915972 1.30733 0)
(0.00065346 0.989452 -2.89774e-19)
(-0.0173462 0.901559 5.90112e-19)
(1.04016 0.0108114 0)
(1.04608 0.00690342 -3.73695e-20)
(1.03867 0.0201727 -2.71471e-19)
(1.04739 0.0175334 0)
(1.05211 0.0171854 0)
(1.03537 0.010447 -6.37944e-21)
(1.03127 0.0106035 4.40744e-19)
(1.0311 0.0152274 5.35209e-19)
(1.02616 0.0189926 0)
(1.02365 0.0198298 0)
(1.03475 0.0226669 2.7198e-19)
(1.02569 0.0248068 0)
(1.02557 0.0237365 0)
(-0.0928341 2.2832 0)
(-0.225936 2.08287 -2.396e-20)
(-0.196326 2.193 -1.71011e-19)
(0.0201885 1.25718 0)
(-0.122483 1.84449 -2.99681e-19)
(-0.127395 1.54555 1.80126e-19)
(-0.0732758 1.23224 0)
(0.394174 1.69367 0)
(0.360482 1.27845 4.34031e-19)
(0.303726 1.336 0)
(0.415466 1.27678 -3.25218e-19)
(0.459624 1.44498 0)
(0.440506 1.38728 2.80493e-19)
(1.03141 2.69964 -7.92117e-21)
(0.957096 2.4177 -5.24603e-19)
(0.902525 2.18416 5.67556e-19)
(0.842101 2.37937 1.58393e-19)
(0.844688 2.51384 0)
(0.914325 2.50769 0)
(0.917156 2.379 0)
(0.894853 2.36209 -6.08381e-19)
(0.692912 2.48764 -1.28725e-19)
(0.801393 2.47925 -3.88136e-20)
(0.812918 2.45032 2.97069e-20)
(0.690609 2.39058 0)
(0.794514 2.38916 0)
(0.753797 2.39965 -2.70911e-19)
(0.769597 2.50354 0)
(0.610326 1.08443 0)
(0.492304 0.934981 -1.68498e-19)
(0.558095 0.964938 -1.14615e-20)
(0.529632 1.06757 0)
(0.530279 1.01813 2.54512e-19)
(0.765142 0.870772 -3.31541e-20)
(0.773634 1.00711 0)
(0.747899 0.962344 1.81988e-20)
(0.641564 1.02576 0)
(0.643772 0.939243 0)
(1.16625 2.76668 -3.63713e-20)
(1.14484 2.83012 5.24855e-20)
(0.936984 2.35408 -1.6e-19)
(0.903709 2.3327 -2.33706e-21)
(1.1305 2.74151 0)
(1.08253 2.71254 2.97714e-21)
(1.08981 2.49412 -1.56211e-19)
(0.985118 2.23714 -3.06805e-20)
(0.502873 1.37188 0)
(0.516174 1.08283 1.65399e-20)
(0.55004 1.15154 0)
(0.860336 0.21476 0)
(0.812102 0.170194 0)
(0.770765 0.149946 0)
(0.853367 0.222483 -4.27311e-19)
(0.788094 0.214531 2.58651e-19)
(0.935354 0.0546327 -2.52438e-19)
(0.950848 0.101489 0)
(0.925698 0.106844 1.11009e-19)
(0.877147 0.0845438 4.49426e-19)
(0.860191 0.046314 -2.78568e-19)
(1.16476 3.36399 -8.96618e-19)
(1.21253 3.28317 0)
(1.16303 3.39198 -1.78994e-18)
(0.649693 3.5526 1.53158e-18)
(0.875241 3.11946 2.7577e-19)
(0.519276 0.860442 3.55107e-19)
(0.440503 0.857915 0)
(0.342377 0.505798 -1.05407e-19)
(0.44411 0.688813 -5.41405e-19)
(0.528104 0.477248 -1.41956e-19)
(0.504449 0.525642 1.63802e-19)
(0.649098 0.543549 3.48388e-19)
(0.679 0.564255 0)
(0.630697 0.624446 0)
(0.587858 0.564212 0)
(0.951766 0.59191 -3.91302e-21)
(0.875249 0.533258 -3.03159e-19)
(0.899385 0.565697 1.92224e-19)
(0.934384 0.501686 -2.29237e-19)
(1.03761 0.474597 0)
(1.04591 0.563617 -3.73324e-20)
(0.834936 0.387835 -5.57338e-19)
(0.839406 0.372979 8.5953e-19)
(0.789372 0.382482 4.35832e-19)
(0.78213 0.354196 -4.70821e-19)
(0.836355 0.312692 -3.5556e-19)
(0.791917 0.309349 4.37322e-19)
(1.02647 0.00545234 -2.75779e-19)
(1.02625 0.00558874 5.57206e-19)
(1.02939 -0.000633257 3.54616e-19)
(1.03305 6.05406e-05 -4.26502e-19)
(1.03316 0.00800491 0)
(1.02982 0.00853081 -6.89689e-19)
(0.0444577 1.64836 -3.30853e-20)
(0.0335491 1.57321 0)
(0.089195 1.69922 -3.1958e-19)
(0.0826047 1.68009 2.97332e-19)
(0.0956645 1.53126 -2.006e-19)
(0.083603 1.49881 0)
(0.144771 1.90151 0)
(0.101475 1.58415 1.26956e-19)
(0.0850234 1.43555 -1.13651e-19)
(0.0105887 1.71599 2.39678e-20)
(-0.0385966 2.17661 2.17721e-19)
(-0.00950328 2.15456 3.05693e-19)
(0.495934 1.38019 2.03749e-19)
(0.489225 1.3857 2.38597e-19)
(0.437073 1.27554 2.82003e-19)
(0.432723 1.29367 -1.53536e-20)
(0.621168 1.28779 0)
(0.536556 1.37431 3.97197e-19)
(0.55242 1.38356 -3.86635e-19)
(0.443284 1.26402 -2.71865e-19)
(0.497693 1.21893 0)
(0.553229 1.18888 0)
(0.659534 2.44672 1.89145e-19)
(0.669327 2.47613 7.53889e-19)
(0.717674 2.49202 -5.18707e-19)
(0.62196 2.47416 -1.46316e-19)
(0.563045 2.56584 1.54437e-19)
(0.512577 2.5378 -4.3294e-19)
(0.971611 2.38191 -3.1158e-19)
(1.01159 2.39893 0)
(0.916648 2.16448 -3.82209e-19)
(1.05135 2.69305 0)
(1.05351 2.68015 0)
(0.616533 2.27877 1.12821e-19)
(1.04561 3.16605 3.63743e-19)
(0.916531 3.036 -2.93926e-19)
(0.285105 0.927052 0)
(0.324792 0.788415 -2.09655e-19)
(0.484521 0.743977 -7.8156e-19)
(0.391381 2.02687 0)
(0.46893 2.78761 -1.91996e-19)
(0.425484 2.552 0)
(0.679988 0.687675 -4.84153e-19)
(0.756248 0.678276 6.42751e-19)
(0.774421 0.624367 4.27161e-19)
(0.657921 0.653984 6.69671e-20)
(0.711041 0.601471 -2.76248e-19)
(1.00833 2.77024 -2.7658e-19)
(1.04408 2.82541 1.38614e-19)
(0.64271 2.15686 2.81054e-19)
(0.602699 1.72375 -2.20674e-19)
(0.705285 1.91481 -5.98442e-20)
(0.994372 2.45376 -8.33394e-20)
(0.997891 2.44636 -1.19112e-20)
(0.66666 1.85375 5.97683e-21)
(0.460652 1.34552 1.10255e-19)
)
;

boundaryField
{
    wall-4
    {
        type            noSlip;
    }
    velocity-inlet-5
    {
        type            fixedValue;
        value           uniform (1 0 0);
    }
    velocity-inlet-6
    {
        type            fixedValue;
        value           uniform (0 3 0);
    }
    pressure-outlet-7
    {
        type            zeroGradient;
    }
    wall-8
    {
        type            noSlip;
    }
    frontAndBackPlanes
    {
        type            empty;
    }
}


// ************************************************************************* //
