/*--------------------------------*- C++ -*----------------------------------*\
| =========                 |                                                 |
| \\      /  F ield         | OpenFOAM: The Open Source CFD Toolbox           |
|  \\    /   O peration     | Version:  2412                                  |
|   \\  /    A nd           | Website:  www.openfoam.com                      |
|    \\/     M anipulation  |                                                 |
\*---------------------------------------------------------------------------*/
FoamFile
{
    version     2.0;
    format      ascii;
    arch        "LSB;label=32;scalar=64";
    class       surfaceScalarField;
    location    "4";
    object      phi;
}
// * * * * * * * * * * * * * * * * * * * * * * * * * * * * * * * * * * * * * //

dimensions      [0 3 -1 0 0 0 0];

oriented        oriented;

internalField   nonuniform List<scalar> 
47
(
-5.63654
5.63654
-5.5022
6.18243
-5.70193
0.0653922
-5.70193
5.58561
0.0509251
5.58561
-5.53906
-5.53906
5.90304
0.279385
-5.90304
0.201117
5.51912
0.0664857
5.51912
5.54082
-0.0216953
-5.54082
0.00175734
10.6607
-10.5953
6.98342
3.67725
7.03434
-7.22798
-3.36729
-7.02686
-6.8143
6.00701
1.02733
6.0735
-9.09131
5.72402
-7.94554
0.918675
-5.90904
5.93074
0.14276
-8.92773
10.0668
-5.25048
5.20499
6.23232
)
;

boundaryField
{
    wall-4
    {
        type            calculated;
        value           uniform 0;
    }
    velocity-inlet-5
    {
        type            calculated;
        value           nonuniform List<scalar> 0();
    }
    velocity-inlet-6
    {
        type            calculated;
        value           nonuniform List<scalar> 0();
    }
    pressure-outlet-7
    {
        type            calculated;
        value           nonuniform List<scalar> 0();
    }
    wall-8
    {
        type            calculated;
        value           nonuniform List<scalar> 0();
    }
    frontAndBackPlanes
    {
        type            empty;
    }
    procBoundary12to13
    {
        type            processor;
        value           nonuniform List<scalar> 5(0.0368635 6.81606 -0.905261 4.86182 6.37508);
    }
    procBoundary12to14
    {
        type            processor;
        value           nonuniform List<scalar> 3(-8.17263 -1.13908 0.473536);
    }
    procBoundary12to15
    {
        type            processor;
        value           uniform 5.5022;
    }
    procBoundary12to22
    {
        type            processor;
        value           nonuniform List<scalar> 2(-6.18243 -7.66615);
    }
}


// ************************************************************************* //
