/*--------------------------------*- C++ -*----------------------------------*\
| =========                 |                                                 |
| \\      /  F ield         | OpenFOAM: The Open Source CFD Toolbox           |
|  \\    /   O peration     | Version:  2412                                  |
|   \\  /    A nd           | Website:  www.openfoam.com                      |
|    \\/     M anipulation  |                                                 |
\*---------------------------------------------------------------------------*/
FoamFile
{
    version     2.0;
    format      ascii;
    arch        "LSB;label=32;scalar=64";
    class       volScalarField;
    location    "12";
    object      p;
}
// * * * * * * * * * * * * * * * * * * * * * * * * * * * * * * * * * * * * * //

dimensions      [0 2 -2 0 0 0 0];

internalField   nonuniform List<scalar> 
918
(
0.228759
0.934566
0.00643657
0.228117
0.00026411
0.901731
-0.846203
0.418248
0.208579
-0.135708
0.0206216
0.200039
0.76207
0.529909
-1.45389
0.0146377
0.367847
-0.637351
0.206909
0.00597195
0.505012
0.215299
0.218512
0.209266
0.263958
0.52498
0.642619
0.000328956
-0.00227021
-0.00190447
0.00278615
-0.00222828
0.00404733
0.785375
0.836462
0.859103
0.176631
0.0421989
-0.692807
-0.772855
-0.759025
-0.878466
0.402873
0.408815
-0.491515
0.415705
0.429604
0.197277
0.208024
0.209031
0.209903
0.209177
0.210608
0.303077
-0.153934
-0.214878
-0.0803741
-0.0613491
0.0832701
0.0189216
0.0124691
0.0211755
0.022495
0.139147
0.196982
0.193077
0.203351
0.213689
0.874113
0.846028
0.872158
0.78582
0.802357
0.740054
0.712634
0.549674
0.570735
0.515881
0.506977
-1.89206
-2.86393
-0.85365
-0.590289
0.00152206
0.0213893
0.0268957
0.347466
0.35605
0.361328
0.374407
0.796559
-0.594408
-0.818764
0.206535
0.205
0.215105
0.215989
0.212325
0.211263
0.0132053
0.0191684
-0.00394652
0.00563849
0.00310449
0.479192
0.471412
0.210138
0.207061
0.221192
0.245364
0.231871
-0.0187566
0.278891
0.308582
0.322122
0.505209
0.503221
0.510838
0.616026
0.578719
0.680122
0.703457
0.00736715
0.00210317
0.0113365
0.00728632
0.0105302
0.175379
0.170468
0.189125
0.178414
0.182739
-0.0464911
-0.179906
0.131698
0.16419
-0.600478
-0.674765
-0.735158
-0.781368
-0.847468
0.150949
0.392236
0.395969
-0.509925
-0.416483
-0.576841
-0.342486
-0.419097
0.184828
0.194092
0.188132
0.203802
0.19911
0.199717
0.212134
0.209464
0.210909
0.33318
0.400736
0.256645
0.232687
-0.423796
-0.272474
-0.422338
-0.0328739
-0.0229269
0.0935702
0.107379
0.0727542
0.0699367
-0.00599593
0.00966231
-0.00344749
0.0253989
0.0273134
0.133155
0.12326
0.148022
0.154781
0.188497
0.188387
0.191516
0.191144
0.663165
0.685451
0.693231
0.667086
-3.87137
-6.6806
-0.256375
-0.108835
0.00204287
0.00269605
0.00159589
0.0023131
0.00357702
0.000615021
0.042865
0.0384608
0.0306715
0.0348781
0.336381
0.340845
0.784602
0.863944
0.702733
0.718413
0.194634
0.198352
0.202554
0.198431
0.0265344
0.0211701
0.0270084
0.43013
0.451785
0.452693
-0.0539998
-0.141569
0.0295437
0.0565252
0.325381
0.308904
0.330622
0.386055
0.424192
0.710576
0.728879
0.72747
0.735933
0.779965
0.796372
0.761528
0.159521
0.168635
0.164594
0.193585
0.19074
0.191305
0.186624
0.189873
0.187837
-0.334378
-0.713182
0.241613
0.264034
0.22093
0.228992
0.244563
0.399375
0.369876
0.381727
0.388406
-0.276454
-0.346542
0.199739
0.181417
0.0827876
0.109483
0.0950426
0.634465
0.595092
0.645048
0.618372
0.580038
0.605471
-0.663951
-2.19271
-1.2885
0.261467
0.0639288
0.15631
0.061082
0.0480045
0.0505721
0.811249
0.844314
0.45397
0.602574
0.565373
0.467625
0.499766
0.551432
0.475774
0.510626
0.548075
0.530584
0.105414
0.188697
0.101226
0.497802
0.604929
-0.165228
-0.210985
-0.273805
0.117918
0.153075
0.134046
0.779603
0.62934
0.746917
0.206563
0.207052
0.0106421
0.016247
0.210777
0.211195
0.00608956
0.00863866
0.136334
-1.16168
-0.175554
0.198804
0.189919
0.206494
-0.117336
0.302298
0.0194426
0.0922619
0.060306
0.195834
0.148934
0.112908
0.00678159
0.0189379
0.0139308
-0.477558
0.203876
0.202147
0.205966
0.207345
0.20812
0.00945381
0.00967258
0.00641321
0.0118188
0.0091159
0.00921264
0.176671
0.186934
-0.498759
0.206371
0.208344
0.208387
0.201847
0.207109
0.205093
0.0155106
0.0116586
0.0113699
-0.0669763
0.0487404
0.40029
0.515033
0.346599
0.115285
-0.136504
0.291575
0.36346
0.255777
0.429948
0.373337
0.398634
-0.120172
-0.265936
-0.102866
-0.157098
0.196829
0.196582
0.188619
0.182449
0.201612
0.200097
0.204143
0.202254
0.204762
0.205487
-0.0683998
-0.064732
-0.152535
-0.233783
0.328752
0.415325
0.232966
0.247445
0.146258
0.0229283
0.0237067
0.0199764
0.0133996
0.0570946
0.0635132
0.0790445
0.0754344
0.0495103
0.04685
0.0524142
0.0576368
0.062017
0.191033
0.191158
0.195346
0.202437
0.155453
0.159567
0.130712
0.146812
0.137587
0.080276
0.113452
0.0927963
0.00821936
0.00981963
0.00835938
0.0236939
0.0293905
0.0149308
0.0136868
0.0129084
0.0104052
0.0113551
0.0179613
0.022209
-0.504856
-0.56821
0.880976
0.675417
-0.0477893
0.193354
0.199099
0.19683
0.202101
0.204076
0.204292
0.202278
0.19972
0.18741
0.189043
0.185585
0.185738
-0.445509
-0.58051
-0.402095
-0.456667
-0.143343
0.311091
0.0604602
-0.000538543
-0.00406778
0.208737
0.593141
0.414855
0.468571
0.487166
-0.674055
-0.272233
-0.603518
0.00750294
-0.187252
0.396274
0.451493
0.477296
0.420634
0.366933
-0.402656
0.196243
-0.370471
-0.336616
-0.151319
-0.234456
0.42657
0.358044
0.36421
0.386566
0.409544
0.360226
0.341607
0.336746
0.377607
0.382381
0.176824
-0.0292589
-0.0783887
-0.111139
0.337737
0.218599
0.271416
0.193522
0.191345
0.194353
0.192857
0.179059
0.185182
0.17827
0.186071
0.187504
0.197568
0.197178
0.192768
0.194966
-0.0372446
-0.0235267
-0.120765
-0.352675
-0.247246
-0.339884
-0.184222
0.0888207
0.0946124
0.118855
0.235768
0.0107982
-0.323661
-0.219085
-0.383038
-0.00472404
-0.128246
0.104872
0.156756
0.169197
0.141425
0.209733
0.195316
0.0383246
0.0477101
0.0303558
0.0299378
0.0991254
0.122187
0.114335
0.0482399
0.0491101
0.025769
0.0271735
0.0710357
0.0420768
0.0544639
0.0646935
0.0224053
0.0247494
0.0291128
0.0405416
0.0398144
0.0426429
0.186949
0.188561
0.187932
0.198347
0.210413
0.223506
0.194009
0.172627
0.165697
0.169356
0.146081
0.152934
0.150911
0.159635
0.178432
0.184314
0.183867
0.185131
0.170975
0.173163
0.160801
0.163917
0.147295
0.131916
0.119595
0.0189938
0.0114727
0.0149995
0.0160914
0.0105136
0.013142
0.0431041
0.0342069
0.0394938
0.0338082
0.0370896
0.016971
0.0182176
-0.542873
-0.492839
-0.566855
-0.579292
-0.629103
0.801422
0.822755
0.668326
0.403445
0.4225
0.681211
0.788409
0.418799
0.485815
0.525922
0.0355831
0.512405
0.200644
0.198798
0.195251
0.195644
0.198098
-0.336443
-0.240606
-0.233751
-0.185473
-0.000485353
0.10613
0.11045
-0.240164
-0.0772855
-0.0451709
0.303797
0.320819
0.266475
0.292296
0.291178
0.126857
0.193302
0.242362
0.208014
0.245491
0.264881
0.22727
0.256026
0.209264
0.170828
0.171298
0.117568
0.135662
0.116442
0.0990408
0.187631
0.167542
0.177041
0.17073
0.18856
0.22054
0.211777
0.232371
0.24977
0.177793
0.142509
0.150376
0.177294
0.139661
0.150388
0.165102
-0.020122
-0.106653
-0.0572111
-0.419131
-0.298554
-0.315653
-0.365163
-0.330611
-0.0397221
-0.772274
-0.715606
-1.35259
0.13864
0.621777
0.384709
0.357071
0.406461
0.380594
0.379834
0.419844
0.426498
0.328506
0.349846
0.350446
0.301684
0.328714
0.356169
0.35443
0.176223
0.0686699
0.0570164
0.0247626
-0.102111
-0.0736047
0.134285
0.0590217
-0.0125981
-0.00295191
0.15431
0.0575303
0.11708
0.150761
0.0840522
0.0445168
0.234247
0.296241
0.293325
0.262986
0.184653
0.195745
0.220721
0.251648
0.27925
0.314363
0.187071
0.191473
0.193132
0.190636
0.186952
0.189362
0.188646
0.190888
0.191814
0.19459
0.193103
0.0121046
0.0191578
-0.00634546
0.00131982
-0.00262344
-0.0327832
0.0377847
-0.0361786
0.0316668
0.0283895
-0.00262871
-0.011554
-0.0009359
0.0163171
0.148713
0.174221
0.159432
0.107049
0.153966
0.354697
0.316379
0.277332
0.172028
0.217337
0.300477
0.0816414
0.0929234
0.0779236
0.103074
0.0980177
0.0299183
0.0285348
0.0319845
0.0407646
0.0380848
0.0299515
0.0248837
0.0253736
0.0277526
0.0266343
0.0264053
0.172851
0.169034
0.170884
0.16462
0.163202
0.175837
0.178647
0.17979
0.184194
0.185612
0.178488
0.181677
0.184349
0.0285064
0.0224181
0.0242199
0.0234642
0.0245135
0.0210835
0.020468
-0.634797
-0.599922
-0.603403
-0.620369
-0.537803
-0.579309
0.0895575
-0.0631969
0.108228
0.364008
0.19505
0.135158
0.157236
0.251379
-0.211935
0.0510642
-0.159732
0.670016
0.484831
0.634992
0.1738
-0.0927567
0.0478753
0.106335
-0.0587034
-0.00878098
-0.0024685
-0.11046
-0.0831578
-0.044646
0.0575756
0.00454998
0.0154226
-0.167722
0.0288053
0.0185418
-0.0151362
0.134748
0.218444
-0.0139064
-0.0814617
-0.175537
0.29543
0.313554
0.32853
0.304798
0.324212
0.25327
0.243548
0.263272
0.2727
0.265524
-1.09917
-0.821717
-1.75001
-1.0682
-0.659176
0.157376
0.129592
0.382356
0.290325
0.381216
0.363831
0.328635
0.293712
0.294897
0.333357
0.0531128
0.15535
0.128681
0.137153
0.045201
-0.0151834
0.26479
0.261159
0.296578
0.32126
0.282413
0.32347
0.183199
0.183565
0.183306
0.180345
0.176569
0.178197
0.0894969
0.0677408
0.0984604
0.080784
0.0554518
0.0563618
0.0344324
0.0301699
0.0270515
0.0279877
0.0319485
0.0363525
-0.266459
-0.400239
-0.622951
-0.637756
-0.375497
-0.474416
-0.460609
-0.521229
-0.367306
-0.317575
0.0280555
0.396167
0.117201
0.409304
0.160695
0.336956
0.186998
0.245798
0.268917
0.101614
0.134576
-0.19469
-0.632892
-0.560744
0.403823
0.409624
0.191042
-0.0283044
-0.247135
-0.0325086
0.211532
0.153754
0.194926
0.259739
0.256157
-0.340455
-0.261279
-0.0603409
0.175634
-0.0903638
-0.103257
-0.0983067
0.0392207
-0.0271998
)
;

boundaryField
{
    wall-4
    {
        type            zeroGradient;
    }
    velocity-inlet-5
    {
        type            zeroGradient;
    }
    velocity-inlet-6
    {
        type            zeroGradient;
    }
    pressure-outlet-7
    {
        type            fixedValue;
        value           uniform 0;
    }
    wall-8
    {
        type            zeroGradient;
    }
    frontAndBackPlanes
    {
        type            empty;
    }
}


// ************************************************************************* //
