/*--------------------------------*- C++ -*----------------------------------*\
| =========                 |                                                 |
| \\      /  F ield         | OpenFOAM: The Open Source CFD Toolbox           |
|  \\    /   O peration     | Version:  2412                                  |
|   \\  /    A nd           | Website:  www.openfoam.com                      |
|    \\/     M anipulation  |                                                 |
\*---------------------------------------------------------------------------*/
FoamFile
{
    version     2.0;
    format      ascii;
    arch        "LSB;label=32;scalar=64";
    class       surfaceScalarField;
    location    "12";
    object      phi;
}
// * * * * * * * * * * * * * * * * * * * * * * * * * * * * * * * * * * * * * //

dimensions      [0 3 -1 0 0 0 0];

oriented        oriented;

internalField   nonuniform List<scalar> 
1300
(
3.75095
5.62643
-6.24131
3.75095
-6.10485
5.62643
-4.48092
4.48092
-1.49001
1.49001
1.8766
1.87435
-4.69614
4.69614
-4.86417
4.86417
-2.84903
2.84903
-5.24645
5.24645
-5.06781
5.06781
4.6928
-4.6928
-4.94056
4.94056
-1.91075
1.91075
-4.31925
4.31925
3.17751
-3.17751
-5.14135
5.14135
-0.53312
0.53312
-0.554963
4.30592
3.19599
3.19599
-2.57302
2.57302
-4.8474
4.8474
6.21826
-6.21826
9.46572
-9.46572
-3.2244
-3.38925
1.35953
-8.11009
-4.74532
-4.74532
-8.4404
8.4404
-2.81397
2.81246
2.95884
-2.95884
-1.69626
1.69626
-4.46203
-0.0188887
-4.46203
4.43073
0.0501901
4.43073
-1.62254
0.132524
-1.62254
4.09528
-4.09528
1.3145
0.175515
1.3145
3.05628
-3.05628
-1.87699
3.75359
1.87397
-1.87296
6.17888
-1.87799
3.75234
-4.97934
4.97934
-4.63854
-0.0576012
-4.63854
4.7311
-0.0349607
4.7311
-5.25351
5.25351
-4.80482
-0.0593565
-4.80482
4.94058
-0.0764026
4.94058
3.06247
-3.06247
-2.87723
0.0281972
-2.87723
2.80736
0.0416697
2.80736
0.35356
5.27287
-5.97999
8.79245
-5.27287
0.0264202
5.20842
0.0380258
5.20842
-5.106
0.0381884
-5.106
5.00783
0.0599852
5.00783
4.78265
-0.0898512
4.78265
-4.80864
0.115844
-4.80864
-3.33241
-3.33056
-5.03537
0.094808
-5.03537
-1.94596
0.0352098
-1.94596
1.86637
0.0443887
1.86637
-3.55075
3.55075
-4.20471
-0.114537
-4.20471
3.12864
0.0488771
3.12864
1.86803
1.88292
5.61899
-5.61899
2.44147
-5.11886
-0.0224904
-5.11886
-5.17133
-4.29438
5.17133
-0.0299877
-0.843753
0.310633
-0.843753
3.15918
0.0368148
3.15918
2.71856
0.0888015
-2.71856
0.145538
3.44714
-3.44714
1.9355
0.637524
1.9355
-5.57213
5.57213
4.94677
0.0610571
-4.94677
0.099368
6.15799
0.060264
6.15799
-6.19952
-0.0187382
-6.19952
3.38072
-6.76997
-3.38977
4.84318
0.0973824
-4.84318
0.097859
2.97637
-0.0175297
2.97637
-2.91139
2.91139
-2.96765
0.00881691
-2.96765
-2.10889
0.412626
-2.10889
1.39171
0.304555
1.39171
-4.39209
-0.0699441
-4.39209
-4.3284
0.123688
4.3284
0.102334
0.715163
-0.715163
-1.74967
0.127129
-1.74967
-4.23686
-0.155232
4.23686
-0.141579
-4.00136
-0.0939135
-4.00136
-3.00535
0.037695
3.00535
0.0509282
3.11519
0.0439909
-3.11519
0.0589082
-1.87124
3.75416
-1.87971
3.75368
-4.78683
-0.192509
-4.78683
5.11246
-0.133127
5.11246
4.52034
-0.201096
-4.52034
-0.118195
4.7685
-0.037398
4.7685
-5.21578
-0.0377252
-5.21578
5.26747
-0.0139662
5.26747
4.78117
-0.0126709
-4.78117
-0.0236485
5.01629
-0.0757118
5.01629
3.11223
-0.0497508
3.11223
-3.02879
-0.0336873
-3.02879
2.91059
-2.91059
2.90092
0.00966948
-2.90092
0.023693
-11.1328
11.1141
-0.0350303
-11.0978
5.17339
5.17339
4.18901
0.593637
4.18901
-5.01591
0.207262
-5.01591
3.34244
-6.73221
3.35204
-6.68445
3.33186
-11.4419
3.34317
-6.67374
5.17514
-5.17514
5.11259
0.0625521
-5.11259
0.0772201
-1.99108
0.0451131
-1.99108
-3.08263
-0.468124
-3.08263
4.00765
-0.456897
4.00765
-3.01627
3.01627
-3.07478
0.0585094
3.07478
0.0538581
5.07703
-0.0607441
-5.07703
-0.0418235
1.08312
0.231375
-1.08312
0.239371
3.64232
-0.195186
3.64232
-3.27446
-0.172682
-3.27446
-1.97872
-0.0123535
1.97872
-0.0432279
-5.81923
0.247106
-5.81923
-11.1908
0.0930213
-11.1528
-6.1065
-6.1065
2.3339
11.1264
-3.00009
-0.0286965
3.00009
-0.0237242
2.95018
0.0660947
-2.95018
0.0387863
-2.90872
-0.00187007
2.90872
0.00267035
-2.50955
0.400664
-2.50955
-0.958301
0.958301
-1.17226
0.213956
1.17226
0.219453
1.07219
-0.357027
1.07219
1.81195
0.054412
-1.81195
0.0622861
-3.90928
-0.0920801
-3.90928
5.17837
-0.0659079
5.17837
-3.17199
-0.102468
3.17199
-0.0597623
-0.0332604
11.1473
-5.14013
0.0341338
5.14013
-11.2076
11.2417
-3.20933
0.699772
3.20933
0.979688
5.29819
0.273934
-5.29819
0.282288
5.22804
0.0394374
-5.22804
0.0528906
-2.6349
-0.447728
-2.6349
-4.45286
-0.333964
4.45286
-0.445215
-11.4763
-0.202314
11.6787
-11.4164
6.02155
0.136444
-6.02155
11.3782
-0.672097
-0.0430661
0.672097
0.286203
1.51723
-0.445036
1.51723
3.80856
-0.166235
-3.80856
-0.100726
-5.1952
-0.0205843
5.1952
-0.0168262
-2.00288
-0.632021
2.00288
-0.485651
-4.26795
4.30476
1.91093
-3.36793
-3.40204
-7.66231
1.85253
1.90163
4.294
-7.05328
-4.38866
-6.95542
7.27889
-6.99661
-9.32336
9.23351
7.43929
-7.5332
-5.7731
5.82696
6.4365
-6.38557
1.88058
1.87301
9.61947
-9.67707
-11.4286
11.2361
10.1428
-10.2021
10.8969
-10.9346
-12.4846
12.5241
-5.74668
5.77488
-6.60541
6.57172
-6.78532
6.72556
-3.2986
-3.38585
9.11205
-9.01724
11.7604
-11.7829
-7.98701
7.87247
3.38696
0.917805
3.43095
-1.88257
3.76316
-1.86977
3.7807
3.38271
-6.68131
3.34949
-6.75153
6.06914
5.69126
-6.03915
-1.62316
-5.86595
5.84842
-5.85891
5.86158
8.79563
-8.81452
-1.8846
3.75761
-1.86907
3.7707
-3.41823
-2.35486
3.36936
0.924646
5.58609
3.52596
-5.68347
-1.27195
-7.62946
7.46323
-7.9008
7.72812
-0.463525
5.82704
-5.36352
4.38388
-1.54769
7.37474
5.7312
5.93846
5.86988
-5.59594
1.12673
-6.49025
-6.39088
-2.70941
2.83653
2.64975
-2.47423
5.87189
1.5674
5.73031
-5.42304
-2.11016
-5.51512
3.80803
2.01893
3.86654
4.01507
2.42143
4.05276
3.03597
-3.03546
-0.000501939
-3.06263
6.0986
0.722146
-5.4175
-4.49285
6.53849
3.08098
6.50352
-6.02396
-3.65311
-6.14216
-6.93032
-4.4983
-7.26428
7.14001
4.0961
7.00688
-8.20107
8.18424
6.77372
3.36906
6.69732
-6.69889
-3.50325
-6.72254
10.5744
-2.65155
-7.92283
-7.01701
-5.46762
7.03097
3.8659
7.58549
4.93857
7.63838
3.59158
6.98279
-7.45748
1.98987
-3.83849
-1.90819
-3.8148
3.73577
2.03911
3.77744
-4.13218
-2.47323
-4.16087
-4.20015
-2.58517
4.2499
2.32182
-4.32268
-3.57812
4.42515
2.30041
3.05249
-7.44116
3.62124
-7.0071
-6.34982
-2.66742
-6.2726
4.12212
2.6135
-6.73562
-2.55919
10.9339
-5.24262
9.31072
-7.31298
-4.46991
-7.35481
-5.90846
-2.07855
-5.78477
-7.68708
7.23935
-7.00857
6.55167
14.3057
-5.34067
-8.965
-3.96552
-2.42005
3.90661
-0.475662
-3.71552
3.71502
0.0476375
3.82833
4.74614
4.27048
-3.87248
-1.98643
-3.8337
3.86676
1.99483
3.86489
6.42993
2.36569
6.48012
-6.38922
-2.4253
-6.45916
8.94236
-8.52973
2.92441
-2.93676
5.15003
2.57809
-4.95485
-2.67461
5.99585
-3.03487
-2.96098
-12.227
10.634
1.59297
-4.85222
-0.468348
0.0647718
-5.5278
-3.79556
5.41196
0.526505
11.1605
7.36493
-5.51412
5.76123
6.16454
6.22559
-0.165285
5.81474
-5.11497
5.12346
-2.24693
-2.87653
5.24671
-5.40194
-1.21245
-5.30798
4.09553
0.328363
1.89924
-1.5886
-2.13696
-0.572444
-2.07467
1.59405
1.0557
1.82542
1.01278
1.82375
-2.90623
0.517959
2.38827
-1.89344
-1.95627
-3.60133
-0.89221
4.49354
5.4395
2.02372
-5.33878
-0.176346
2.78887
-2.74448
-0.879531
-2.7218
1.92088
-2.80041
-3.39929
-1.82243
5.22172
-3.36741
-0.466283
3.30132
0.565221
-3.74095
-2.125
3.73213
0.32063
-3.1103
6.20916
-3.09886
-5.09673
2.52932
3.56928
4.54825
-4.83237
2.45936
2.37301
-1.26309
5.7479
0.755623
5.7105
-8.26741
4.6143
6.0581
1.81437
-5.857
-0.285152
-8.55256
10.5011
-8.12715
-2.37399
6.20836
4.29278
6.0884
8.21727
-5.82044
11.9088
0.839188
-8.96634
7.71337
-5.899
3.73718
-9.63618
-11.9545
2.98812
-7.50771
8.7475
-1.23979
-2.36224
-5.83883
9.86995
-1.10215
-8.7678
5.90473
-5.44112
-5.34051
10.7816
-8.09266
8.84377
-2.74156
-6.1022
-6.87204
-4.06256
6.89263
1.29161
-9.97745
11.9673
-2.99466
5.91187
0.785448
5.83616
4.06381
-6.01008
1.94628
4.02886
-6.77042
2.96367
-8.97376
-4.90999
9.58075
-4.67076
-7.57741
-6.7828
-0.794602
2.02942
9.9379
-6.96799
5.35447
1.61352
3.33734
0.527551
-3.34701
-0.467789
0.347015
4.43975
-4.78676
4.12445
4.21325
3.35553
1.08422
3.82143
2.02699
-3.7977
-0.36317
-4.01904
1.43387
-1.69722
-3.51673
4.9506
-3.94127
0.424544
-2.63644
-3.47459
6.11103
-4.54463
3.07742
3.13174
5.07224
-4.83476
1.36017
-2.39778
-2.43697
2.5811
-4.27833
1.86862
3.08198
4.16903
0.590909
4.87556
4.70519
-7.48906
0.481961
8.23115
-6.9592
1.70819
5.93019
-7.06266
0.279859
-5.99274
1.09999
-6.34261
-5.63563
3.59882
-5.67737
-6.03736
5.60604
0.874082
-5.70838
-0.0763979
-5.31905
-2.36803
-5.95107
-2.15055
-4.85802
-7.97099
-1.91321
-6.05778
5.32615
-4.87919
-2.38509
5.3244
1.22727
-7.48169
7.43862
-7.60699
7.16195
0.0764861
3.63853
4.34696
1.92691
-2.37544
4.30235
-4.74614
7.11184
-8.76612
4.01998
4.12823
-6.55353
-4.63789
4.91651
4.02585
5.22106
9.47968
-10.2948
0.815113
-11.0176
13.0309
-2.01325
-17.067
6.04942
-7.58736
2.64278
0.281628
2.68789
0.665178
2.33698
-3.00216
-2.27158
-2.31481
-2.24167
-3.25151
5.49318
1.17884
-3.25754
2.0787
-3.42236
4.6012
-0.030751
-3.22679
5.10039
-2.76341
5.38202
-3.45311
1.92891
3.23244
5.46846
-2.23602
4.165
-1.58692
1.76112
-3.99714
-1.49039
-2.95906
4.99817
-3.15197
3.57651
-0.211409
3.78792
-3.9951
0.96023
-0.639574
3.57368
3.71922
4.11941
-3.03518
2.83871
-4.42562
-1.15843
-3.83472
-0.752737
-0.712392
-3.72234
4.43473
5.89449
-6.60688
-5.34636
9.50283
-4.15648
7.66068
-5.462
-2.19868
-4.22642
-4.30331
3.82576
1.98898
9.64966
0.157512
-5.61951
-4.95746
-3.97777
3.13003
1.99342
-2.0946
3.68756
2.02982
-0.130587
0.640612
1.18481
1.8955
-1.25489
0.164423
1.73108
-1.42418
2.06309
0.725772
-2.11751
0.0428318
-1.40358
3.32446
0.984685
-2.04039
0.785498
1.07757
-3.3245
4.66968
-2.29392
-2.37576
5.74725
1.20949
-3.50341
4.09848
-3.77012
2.30876
-3.20097
-1.19465
-4.96477
-3.39737
-2.45368
4.53238
-3.0395
5.06322
1.13309
-4.88687
6.01997
-3.43373
1.6113
-3.075
3.80078
-1.16747
-1.90753
2.60786
2.61386
-2.79648
0.0746758
-0.188615
2.17928
-2.36789
-0.62113
-2.51457
-4.56549
4.88612
-2.15829
4.61765
2.14406
-1.92347
6.54111
1.84298
-3.76645
-3.25375
-3.72003
-1.39344
3.15481
-1.00002
-5.72252
-7.10222
5.73519
-0.024688
-8.51219
10.178
-1.66584
-5.43121
0.816905
5.39145
-7.6609
0.89048
-4.69723
5.48081
6.23643
6.21174
-9.08821
0.320417
-4.99212
1.87474
-6.86686
6.16752
-4.55911
7.54723
-8.57701
6.19192
-7.34974
5.17324
-1.69362
5.61604
-3.66976
2.30679
-6.36935
-5.07774
7.00151
-3.63245
7.78696
-4.15452
11.9415
-7.14919
6.98852
4.95296
-1.43694
-5.91786
-6.84607
5.40913
0.14245
5.97861
4.90828
-2.88129
4.54511
2.20645
-4.60423
-2.07188
-6.45383
1.8496
-3.32209
-1.87288
3.72248
3.19936
3.72691
1.28551
-3.25913
6.71203
-7.50663
-2.04127
-3.59436
6.75519
-1.34607
4.05733
-7.65168
-2.28528
7.35747
-1.88931
-5.46816
-2.01679
-4.02057
1.52489
-5.54546
4.15248
-4.22888
2.22908
-9.81645
-5.25261
-4.9664
-2.40985
-5.19714
-7.93388
5.52403
-1.88445
5.55417
-9.14608
7.25677
-3.88479
9.40882
-5.19746
-0.753617
5.68311
1.47884
10.8877
0.0129717
-4.65086
-1.76842
3.83832
-2.0699
1.36162
-3.70937
0.128953
2.40254
3.34471
-6.49807
-0.0554627
-4.70632
-3.82626
7.85211
5.67658
11.5711
1.27627
9.05958
-1.20747
10.3359
4.01359
4.23304
-3.89248
4.7076
0.54225
4.56223
-0.838518
2.76743
1.84937
1.88458
0.859893
2.26615
1.45307
3.22638
0.224217
-2.09059
4.70112
-8.67889
-0.918395
-8.08525
1.14826
5.80558
-4.65731
3.03112
-1.03769
0.961214
0.195256
-1.82245
1.6272
-2.68128
-1.95304
-0.221964
-1.48258
2.26807
1.84188
-2.04611
-0.635166
0.273907
-3.67128
2.92706
-2.85239
-0.238529
5.78144
-2.62078
0.25289
-1.00948
-2.26168
-2.83413
2.79129
6.22875
0.312363
3.12989
5.19849
3.07349
0.192199
5.03511
-6.27489
-3.93865
-5.95448
0.21304
5.60449
2.09144
7.84647
7.0444
5.69833
-1.95335
-9.45998
8.45648
-3.74889
6.44323
-0.975077
-4.57038
4.12107
2.99077
-4.99515
0.766273
-3.80411
-7.55299
-1.164
8.42078
-9.72366
8.97004
6.60201
-0.544229
-4.29219
-0.674216
4.07823
0.154811
10.4907
-1.1872
-6.98469
8.17189
-4.61838
3.69998
0.818748
2.86881
2.44595
1.40825
-5.57643
-10.2337
-1.76743
-1.55707
-4.14319
0.350354
-2.19224
6.25096
-2.55098
4.05228
5.62091
6.58212
-2.36357
-4.24331
6.52005
-2.46777
4.11435
)
;

boundaryField
{
    wall-4
    {
        type            calculated;
        value           uniform 0;
    }
    velocity-inlet-5
    {
        type            calculated;
        value           uniform -3.75095;
    }
    velocity-inlet-6
    {
        type            calculated;
        value           uniform -5.62643;
    }
    pressure-outlet-7
    {
        type            calculated;
        value           nonuniform List<scalar> 8(6.24131 6.10485 6.61365 6.75056 6.66298 6.77049 6.69448 6.67503);
    }
    wall-8
    {
        type            calculated;
        value           uniform 0;
    }
    frontAndBackPlanes
    {
        type            empty;
    }
}


// ************************************************************************* //
