/*--------------------------------*- C++ -*----------------------------------*\
| =========                 |                                                 |
| \\      /  F ield         | OpenFOAM: The Open Source CFD Toolbox           |
|  \\    /   O peration     | Version:  2412                                  |
|   \\  /    A nd           | Website:  www.openfoam.com                      |
|    \\/     M anipulation  |                                                 |
\*---------------------------------------------------------------------------*/
FoamFile
{
    version     2.0;
    format      ascii;
    arch        "LSB;label=32;scalar=64";
    class       volVectorField;
    location    "12";
    object      U;
}
// * * * * * * * * * * * * * * * * * * * * * * * * * * * * * * * * * * * * * //

dimensions      [0 1 -1 0 0 0 0];

internalField   nonuniform List<vector> 
918
(
(0.985253 -0.000477612 0)
(0.00500448 2.96626 0)
(-0.00423942 1.65613 0)
(0.979752 0.00211336 0)
(0.000707236 1.62581 1.29457e-21)
(-0.00703363 2.94878 -1.9163e-18)
(0.835565 1.18738 7.38795e-19)
(0.508253 0.245823 -9.13442e-21)
(0.999951 -0.000441249 0)
(0.0346397 1.3792 0)
(-0.00943069 1.42341 0)
(0.842331 -0.00443601 0)
(0.0111088 2.93035 0)
(0.00106321 2.7944 0)
(-0.0205114 3.1758 1.08012e-18)
(-0.00296818 1.53948 -1.67748e-20)
(0.605961 0.110062 5.64854e-19)
(0.208957 1.36475 5.32886e-19)
(0.966421 0.00623485 0)
(0.00278945 1.52589 0)
(0.177268 0.2823 -4.97549e-19)
(1.00133 -0.00517946 0)
(0.999985 -0.0101874 0)
(0.975373 -0.00666763 0)
(0.758877 -0.0257564 0)
(0.0189426 2.62728 0)
(-0.0153942 2.91023 6.66328e-19)
(-0.00944524 1.68086 0)
(-0.0100339 1.76613 0)
(-0.00837819 1.67854 0)
(0.00471434 1.79933 0)
(0.00249789 1.63955 -1.02501e-21)
(-0.00129531 1.55201 0)
(-0.0206081 2.98759 -6.721e-23)
(-0.0167042 3.0053 1.48952e-18)
(0.00210231 3.0002 0)
(0.882747 -0.0036754 0)
(0.377413 0.898273 -1.08249e-20)
(0.838654 1.19388 -1.04255e-18)
(0.984719 1.04735 9.75646e-19)
(0.717636 1.27003 -1.75711e-19)
(0.681691 1.26811 9.92127e-19)
(0.544146 0.31223 8.91221e-21)
(0.536481 0.216318 0)
(1.19574 0.571638 0)
(0.49971 0.330148 4.12896e-20)
(0.465456 0.241285 -4.28426e-20)
(0.916023 -0.0075273 0)
(1.00032 6.3417e-05 0)
(0.99995 0.000300461 0)
(1.00458 -0.00797237 0)
(1.00045 -0.000509688 0)
(1.00014 0.000149845 0)
(0.0371911 1.5826 -5.8058e-19)
(0.00802055 1.49607 0)
(0.0439547 1.36291 0)
(0.00418992 1.53009 0)
(0.0261006 1.37551 0)
(0.00327126 1.5886 0)
(-0.0152309 1.55407 0)
(-0.00414815 1.40952 0)
(-0.0160063 1.58269 0)
(-0.0115601 1.45038 0)
(0.913969 0.000508486 0)
(0.911609 0.00530362 0)
(0.85349 0.000185341 0)
(0.90598 0.00869677 0)
(0.830017 -0.00311064 0)
(0.0146974 3.0004 7.02331e-19)
(0.01152 3.00793 0)
(0.00612747 3.00283 0)
(0.0135566 2.99735 7.84294e-24)
(0.00797885 2.95846 -1.04384e-18)
(0.0145391 2.98207 0)
(0.0107872 2.90357 0)
(0.0252012 2.93023 1.42479e-24)
(0.00416516 2.82507 0)
(0.0319259 2.91503 0)
(-0.00679608 2.74282 0)
(0.307966 3.57141 0)
(-0.132732 3.65413 0)
(0.137956 3.26574 1.00523e-18)
(-0.00897812 2.9983 0)
(0.00301205 1.77634 0)
(-0.00334605 1.65144 1.65487e-20)
(-0.00232581 1.55119 -2.61974e-20)
(0.666336 0.163534 -1.93809e-19)
(0.62548 0.0711139 -1.87685e-19)
(0.634681 0.197961 -5.82298e-19)
(0.590569 0.133663 -3.89638e-19)
(0.270605 1.14529 0)
(0.179968 1.37762 -5.86506e-19)
(0.381691 1.31042 9.89115e-19)
(0.988511 0.0102007 0)
(0.943554 0.00944963 0)
(1.00034 0.000661195 0)
(1.00263 0.00953208 0)
(1.00227 0.00860743 -1.06507e-18)
(0.991837 0.00951805 8.12896e-19)
(-0.00400344 1.62965 0)
(-0.00130779 1.52568 0)
(-0.0122915 1.69062 0)
(-0.00759204 1.64789 0)
(0.00155278 1.53717 0)
(0.263625 0.292108 1.52603e-19)
(0.305456 0.270413 0)
(0.99285 -0.00851133 0)
(0.954737 -0.00570217 0)
(0.881156 0.0226914 0)
(0.84526 0.0295131 0)
(0.802998 -0.00294767 0)
(1.03024 -0.00208689 0)
(0.797508 0.0319539 0)
(0.685544 -0.0176141 7.61912e-19)
(-0.034776 2.86672 3.50183e-19)
(0.0441498 2.90684 0)
(0.0582113 2.88208 0)
(-0.00601643 2.6947 0)
(-0.0127743 2.98534 6.13712e-19)
(-0.0184251 2.89593 0)
(-0.0153455 2.98812 -1.93887e-18)
(-0.0134895 2.92519 6.69281e-19)
(-0.00563904 1.80988 0)
(-0.00301279 1.80508 0)
(-0.00116247 1.65347 -3.38581e-22)
(0.00137249 1.63893 0)
(-0.00219423 1.5379 0)
(0.941418 0.00125229 0)
(0.884465 0.00220931 0)
(0.862951 -3.04355e-06 0)
(0.941436 -0.0029775 0)
(0.883618 -0.00264712 0)
(0.489824 1.08865 2.98885e-21)
(0.537303 1.14737 0)
(0.343463 0.837818 7.74349e-21)
(0.277363 0.711313 0)
(0.954599 1.08096 -2.82809e-19)
(1.07705 0.897079 5.83073e-19)
(0.383036 1.34992 0)
(0.555517 1.33445 0)
(0.515057 1.3051 0)
(0.0849476 0.00305761 -9.12567e-20)
(0.575789 0.288559 0)
(0.567108 0.198413 1.12813e-19)
(1.04575 0.943827 0)
(1.11557 0.789203 0)
(1.1418 0.73788 -5.05923e-19)
(1.17693 0.62881 0)
(1.231 0.415972 6.18087e-20)
(0.948535 -0.0029211 0)
(0.955618 -0.00808328 0)
(0.897926 -0.00495808 0)
(0.985193 -0.0088394 0)
(0.974168 -0.00787895 0)
(0.939254 -0.00587763 0)
(1.00023 0.00232195 0)
(1.00076 0.00138435 0)
(0.999937 0.000744815 0)
(0.0210106 1.68511 3.1543e-19)
(0.0635365 1.55932 0)
(0.0100227 1.71254 2.41513e-19)
(0.0190385 1.59578 -4.32926e-19)
(0.0498059 1.40557 -4.39522e-19)
(-0.0100002 1.46194 0)
(0.0752504 1.36191 0)
(0.000324252 1.5446 0)
(0.0176174 1.38126 0)
(0.000970487 1.67616 -1.26664e-21)
(0.00375679 1.5866 0)
(-0.00106298 1.68787 -6.19242e-20)
(-0.00346044 1.59369 -5.05731e-21)
(0.00153062 1.55284 0)
(-0.00654416 1.55006 0)
(0.0106941 1.39523 0)
(-0.0176228 1.6048 0)
(-0.0103758 1.47474 0)
(0.979435 0.0135007 0)
(0.931349 0.00449978 0)
(0.963393 0.00656851 0)
(0.905445 0.00176423 0)
(0.859887 -0.0053225 0)
(0.931355 0.0019388 0)
(0.924251 0.00820383 0)
(0.85728 0.0020161 0)
(0.00591122 3.06477 -6.20903e-21)
(0.0162542 3.05812 0)
(0.0147523 2.96912 0)
(0.00846482 2.87633 0)
(0.921368 3.98685 0)
(1.23446 3.30992 1.00767e-18)
(0.0721563 3.09062 0)
(-0.0244055 2.91483 0)
(-0.00610119 1.79602 0)
(-0.00467262 1.78094 0)
(-0.00131524 1.78457 0)
(0.0012243 1.78727 3.67802e-21)
(-0.0012709 1.77795 0)
(0.00479963 1.78003 0)
(-0.00301823 1.56151 4.1733e-21)
(-0.00323286 1.67195 3.53912e-20)
(-0.00341797 1.66344 2.67716e-20)
(-0.00211482 1.55413 0)
(0.692946 0.132385 2.85134e-19)
(0.660634 0.0507174 -2.76535e-19)
(0.23773 1.32158 0)
(0.301395 0.962394 -2.72924e-19)
(0.170243 1.43562 -7.9071e-19)
(0.204663 1.29932 7.90171e-19)
(0.896864 0.00978356 0)
(0.965654 0.013696 0)
(0.975824 0.0136174 0)
(0.922232 0.011435 0)
(-0.0147708 1.61964 0)
(-0.00853039 1.62786 0)
(-0.00706041 1.50049 0)
(0.452576 0.347855 3.79929e-19)
(0.373546 0.326606 -4.65492e-19)
(0.388015 0.245695 0)
(1.14843 0.0844496 -3.41889e-21)
(1.13392 0.0387205 0)
(1.06342 0.0339429 0)
(0.979549 0.0019287 0)
(0.720482 0.0915025 0)
(0.744428 0.0527806 -1.224e-18)
(0.677426 0.0155601 4.68694e-19)
(0.010147 2.98284 4.38908e-19)
(-0.0319324 2.86883 4.8912e-20)
(0.00384663 3.05019 -1.33895e-20)
(0.0199669 3.04358 4.81657e-19)
(-0.0150333 2.99655 2.22248e-20)
(-0.0130068 2.94943 -8.99281e-23)
(-0.0172971 3.01199 -4.20507e-19)
(0.0147978 3.024 3.03836e-19)
(0.00727363 3.03674 -4.75575e-19)
(0.959326 0.0063744 0)
(0.952266 0.00550225 0)
(0.892351 0.0046888 0)
(0.95209 0.0125933 0)
(0.936887 0.00959816 0)
(0.873361 0.00822411 0)
(0.932812 -0.00261791 0)
(0.925983 -0.000119229 0)
(0.86054 -0.00738739 0)
(0.691731 1.38044 3.02406e-19)
(0.730853 1.49601 0)
(0.209446 0.378582 3.04003e-20)
(0.145313 0.548276 2.99658e-19)
(0.246785 0.66607 -1.50684e-19)
(0.213304 0.57323 2.9448e-19)
(0.356667 0.621722 6.03904e-19)
(0.113647 0.10965 2.56895e-19)
(0.619916 0.225884 -4.01214e-19)
(0.599858 0.25436 1.03431e-19)
(0.57566 0.164129 2.16568e-19)
(1.21937 0.469131 2.9502e-19)
(1.23753 0.263397 3.09506e-19)
(-0.00155795 1.71606 2.00836e-19)
(0.00382248 1.59665 0)
(1.01875 0.0230152 0)
(0.99318 0.0129217 0)
(0.950677 -0.00295294 0)
(0.010775 3.07455 0)
(0.0201086 2.94403 8.3091e-19)
(0.0166342 2.95641 0)
(0.00608783 2.85081 -8.24147e-19)
(0.00595578 3.09132 1.97356e-19)
(0.00774138 3.08245 0)
(0.763621 1.80594 -2.29312e-19)
(1.23883 2.50226 6.23441e-19)
(0.747517 1.95207 -1.46338e-18)
(0.0217295 2.98609 -3.245e-19)
(0.0387069 3.01187 0)
(-0.0311499 2.884 0)
(-0.00860246 1.6747 -8.13208e-21)
(-0.00537229 1.67652 -3.6802e-21)
(-0.00557606 1.57816 -5.63382e-21)
(0.306172 1.22092 8.42311e-19)
(0.312073 0.77787 -5.60771e-19)
(0.0398701 1.63722 5.27529e-19)
(0.08822 1.54478 -6.51513e-19)
(0.112712 1.45691 8.10718e-20)
(0.00246407 3.11864 -1.17151e-18)
(0.01781 3.11767 1.25092e-18)
(-0.00842585 2.9814 5.33996e-19)
(-0.00241539 2.97831 -4.74774e-19)
(-0.0212807 2.88301 -5.43854e-19)
(0.00909703 3.09923 -1.44901e-18)
(0.00267527 3.10624 1.40648e-18)
(0.226628 0.497239 0)
(0.0603052 0.494175 -3.54817e-19)
(0.122221 0.12098 1.50154e-19)
(0.38944 0.773557 7.28392e-19)
(0.222387 0.239066 -1.10354e-18)
(1.23077 0.171477 -5.545e-20)
(1.23452 0.313841 0)
(1.21888 0.120585 1.21353e-19)
(-0.00611681 1.68821 -1.61453e-21)
(-0.0089287 1.69876 0)
(-0.000503696 1.58592 0)
(0.335651 1.06469 -2.90106e-19)
(0.346658 0.960858 -5.7955e-19)
(0.243262 0.501874 1.00075e-18)
(1.00552 -0.00988928 0)
(1.00742 -0.0079989 1.94991e-19)
(-0.00524197 1.8028 0)
(-0.0103242 1.80894 0)
(1.00263 0.00368364 1.87111e-21)
(1.00218 0.0084766 3.99156e-19)
(0.00204667 1.78963 -4.73658e-21)
(0.00165624 1.79027 0)
(0.0437167 3.18986 1.2611e-19)
(0.399723 3.5096 0)
(1.10144 0.640173 6.40878e-20)
(1.01332 0.0132917 -2.68521e-21)
(1.01375 -0.0217304 0)
(1.0015 0.000438636 2.15714e-22)
(-0.0582461 1.67528 0)
(0.0227766 1.90154 0)
(-0.0185601 1.7852 0)
(0.0034969 1.81946 9.05813e-20)
(-0.0074091 1.80916 4.22452e-20)
(1.0035 0.0116219 2.27106e-21)
(1.04489 0.0150582 0)
(1.07436 0.0234554 0)
(-0.00813761 1.78328 0)
(-0.0074311 1.80045 0)
(-0.0108227 1.79632 0)
(0.062882 1.3607 -4.35066e-19)
(1.01149 -0.00880072 0)
(1.01032 -0.0137401 0)
(1.003 0.000636355 2.48886e-19)
(1.0061 -0.00542929 -2.97013e-19)
(1.00108 -0.001324 0)
(-0.0107412 1.78618 0)
(-0.00541234 1.7977 0)
(-0.00568556 1.7925 0)
(-0.00807381 1.79835 0)
(-0.00649109 1.79546 0)
(-0.0080089 1.79816 0)
(1.0232 0.0114448 0)
(1.0232 0.00177237 -9.65317e-22)
(0.769758 1.23668 5.30333e-19)
(1.00202 0.000655425 -2.4748e-19)
(1.00378 0.0052981 2.9949e-19)
(1.00126 0.00196224 0)
(1.01046 0.0103991 2.42997e-19)
(1.00793 0.00978665 -2.9954e-19)
(1.00514 0.0149702 0)
(-0.00672999 1.80063 0)
(-0.00137923 1.79482 1.41612e-20)
(-0.00288789 1.79493 -9.71205e-21)
(1.17809 0.260677 -6.23068e-20)
(1.11374 0.0791191 0)
(0.059941 3.07856 -5.48957e-19)
(0.0710585 2.84935 -4.39836e-20)
(0.152806 3.19912 8.36079e-19)
(0.14456 3.22757 -1.0454e-20)
(0.145084 3.25236 0)
(0.0231066 3.13966 1.19532e-19)
(0.0847303 3.16349 5.35947e-19)
(0.0767827 3.19201 -2.31002e-19)
(0.0272645 3.12848 0)
(0.708573 0.342861 0)
(0.612087 0.395089 0)
(1.08128 0.670075 -2.48226e-19)
(1.07079 0.811644 -9.17612e-20)
(1.12848 0.557043 0)
(1.16262 0.507233 0)
(1.01547 0.0125257 -4.54959e-19)
(1.01232 0.0163247 -1.81822e-21)
(1.01215 -0.0207922 0)
(1.0104 -0.0174985 0)
(1.00711 0.0011739 0)
(1.01147 0.00258782 0)
(1.00452 0.00317843 0)
(1.01161 0.00710367 0)
(1.00627 0.00561446 0)
(1.00546 0.00441172 0)
(-0.0441388 1.68539 0)
(-0.0276359 1.71646 0)
(-0.0838243 1.65379 0)
(-0.0645544 1.61047 0)
(0.0317618 1.9078 0)
(0.091882 1.8922 -3.38994e-19)
(0.0124876 1.89891 0)
(0.00435635 1.88023 1.56641e-19)
(-0.0191585 1.84239 -1.57734e-19)
(-0.0212232 1.78407 0)
(-0.0236808 1.78354 0)
(-0.0138524 1.7854 0)
(-0.0069407 1.77548 0)
(-0.015242 1.81182 -4.53872e-20)
(-0.00591682 1.81116 5.70786e-20)
(0.00328389 1.82046 7.5984e-20)
(0.00202556 1.81631 0)
(-0.00998949 1.81145 -9.55468e-20)
(-0.00918099 1.80857 -5.46112e-20)
(-0.010121 1.81043 3.63358e-20)
(-0.0122804 1.80683 -7.80767e-20)
(-0.00609765 1.81649 -9.58939e-20)
(1.01018 0.0164395 4.39438e-19)
(1.0089 0.00433001 1.86364e-21)
(1.00446 0.019961 -4.58728e-19)
(0.989871 0.0152306 5.80487e-19)
(1.03831 0.0162344 0)
(1.04018 0.00975327 0)
(1.06018 0.0348972 0)
(1.0453 0.0192 0)
(1.05961 0.0125061 0)
(1.10116 0.0650447 0)
(1.07751 0.0474222 0)
(1.09474 0.0340763 0)
(-0.00272959 1.78713 -1.55743e-21)
(-0.00807749 1.77947 0)
(-0.00565182 1.78065 0)
(-0.00660656 1.8025 1.53429e-20)
(-0.00535523 1.80252 -7.50855e-22)
(-0.0131268 1.7812 1.60936e-20)
(-0.0111487 1.78573 -1.60783e-20)
(-0.0106651 1.79388 0)
(-0.00884358 1.79486 0)
(-0.0102877 1.79614 0)
(-0.0126129 1.79502 0)
(-0.0129854 1.79721 0)
(0.215237 1.30065 9.10421e-19)
(0.343371 1.32043 3.37979e-19)
(0.432332 2.09872 -2.04537e-19)
(0.235973 1.93404 4.88551e-19)
(-0.0810946 2.38356 1.9566e-20)
(1.01524 -0.0203088 0)
(1.01583 -0.0136154 0)
(1.01267 -0.0234404 0)
(1.00901 -0.00152667 0)
(1.00546 -0.00239402 0)
(1.00648 -0.00436857 0)
(1.00974 -0.00427972 0)
(1.01136 -0.00924911 0)
(1.0244 0.00375952 4.34272e-19)
(1.01765 0.0100235 -5.4774e-19)
(1.02369 0.00118834 -4.24492e-19)
(1.02064 0.00207766 5.22687e-19)
(0.756192 1.24731 0)
(0.639959 1.32252 6.43632e-19)
(0.866077 1.16984 3.71092e-19)
(0.905092 1.12918 -4.95616e-19)
(1.11856 2.57788 -4.43594e-19)
(0.821469 0.109086 2.91459e-19)
(1.11502 0.0903436 0)
(1.15751 0.173398 5.7089e-20)
(1.14733 0.150417 2.51619e-21)
(0.964222 0.134508 0)
(0.164633 2.97043 1.18465e-19)
(0.133398 2.87654 -6.93159e-19)
(0.0443276 2.34179 5.08348e-19)
(0.119427 0.15036 -2.08734e-19)
(0.342515 3.43999 -4.44525e-19)
(0.200696 3.33041 0)
(0.242396 3.37994 5.78916e-19)
(0.260522 3.04902 -7.21165e-19)
(0.360697 3.21085 0)
(0.00699682 3.1207 2.78059e-20)
(0.0177813 3.12985 -3.55311e-19)
(0.0157762 3.1256 5.22971e-19)
(0.0396948 3.14051 0)
(0.0384668 3.15259 0)
(1.1778 2.59912 0)
(0.509238 0.823046 -2.19816e-19)
(1.01077 0.982978 -2.06056e-19)
(0.964401 1.05612 0)
(0.824157 0.941126 6.0331e-20)
(1.03587 0.863702 3.3058e-20)
(0.407672 0.487984 -5.52002e-19)
(0.73551 0.334317 -2.39311e-20)
(0.737425 0.283425 2.24046e-19)
(0.609861 0.437727 1.78549e-20)
(0.557469 0.43103 -7.35263e-19)
(0.705622 0.370426 0)
(0.681428 0.433315 3.70173e-19)
(0.695256 0.433496 0)
(0.65539 0.41183 0)
(0.671246 0.359917 0)
(0.732785 0.604816 1.30993e-19)
(1.16386 0.267693 -5.71333e-20)
(1.16329 0.398076 0)
(1.18616 0.368318 0)
(0.784468 0.218733 3.32105e-19)
(0.782593 0.535811 -1.84311e-19)
(0.686472 0.509282 -3.00962e-19)
(0.87668 0.404226 -2.85305e-19)
(1.01768 0.0144497 2.95043e-19)
(1.0156 0.017315 -3.06905e-19)
(1.01284 0.0214986 0)
(1.02014 0.0103915 0)
(1.0112 -0.00912472 -2.66334e-19)
(1.00846 -0.00123708 2.69729e-19)
(1.03063 0.00347263 0)
(1.02887 0.00165836 0)
(1.01322 0.00537102 0)
(1.01634 0.0118099 0)
(1.02578 0.00201105 0)
(1.01946 0.00196671 0)
(-0.0243067 1.73496 0)
(-0.0212891 1.74115 0)
(-0.143323 1.67494 8.45701e-20)
(0.0104991 1.43803 1.84297e-19)
(-0.0737104 1.56261 3.65025e-19)
(-0.0256511 1.47437 -1.55676e-19)
(-0.181484 1.64747 0)
(-0.173715 1.90292 -5.4002e-20)
(-0.141925 1.89741 0)
(-0.11835 2.36997 -2.74412e-20)
(-0.0175359 2.28146 4.05568e-19)
(-0.220684 1.92456 4.87125e-20)
(-0.159113 1.51585 1.43182e-19)
(-0.199508 1.61985 1.14188e-19)
(-0.209434 1.51431 4.00537e-19)
(-0.220033 2.01685 2.74703e-21)
(-0.21285 2.06021 -2.27916e-19)
(-0.0423795 1.82506 -4.31662e-20)
(-0.020103 1.8499 0)
(-0.0323308 1.83487 1.77637e-19)
(-0.040921 1.83072 0)
(-0.00578666 1.87324 -1.74444e-19)
(-0.00997394 1.86312 0)
(-0.0136136 1.7973 -3.38395e-20)
(-0.0121493 1.80222 0)
(-0.018067 1.79275 0)
(-0.0165131 1.79553 3.98617e-20)
(-0.0113043 1.82534 -5.30576e-22)
(-0.0206152 1.83954 1.90667e-19)
(-0.00912035 1.83082 1.27041e-21)
(-0.0147238 1.79823 3.08153e-20)
(-0.0150868 1.79862 -1.83759e-20)
(-0.0244781 1.78602 0)
(-0.021672 1.78748 0)
(-0.0323245 1.80802 1.02084e-19)
(-0.0232869 1.79162 6.49643e-20)
(-0.022739 1.79846 -9.42596e-20)
(-0.046452 1.81706 0)
(-0.0114493 1.79259 -5.41134e-20)
(-0.0100741 1.80218 2.57803e-20)
(-0.00975205 1.80167 -8.04761e-21)
(-0.0140486 1.79861 -3.83133e-20)
(-0.00922065 1.8056 -1.2965e-20)
(-0.0113787 1.80827 6.30885e-20)
(1.02007 0.00362471 -2.82057e-19)
(1.01393 0.0102112 2.87491e-19)
(1.01442 0.00350023 0)
(0.994871 0.0465331 4.09797e-19)
(0.988722 0.0324775 -4.88581e-19)
(0.962339 0.0278306 5.68245e-19)
(0.993213 0.0852597 -5.49369e-20)
(1.02578 0.0120063 0)
(1.03204 0.010214 2.52709e-19)
(1.03165 0.0073997 -2.51482e-19)
(1.03271 0.0413928 -1.36662e-20)
(1.0306 0.0265435 1.20175e-19)
(1.02065 0.0472161 0)
(1.01379 0.0419252 -4.48841e-20)
(1.01311 0.0228841 0)
(1.01632 0.0173192 0)
(1.02945 0.00619651 0)
(1.0239 0.00278103 0)
(1.01931 0.0228415 9.23464e-20)
(1.02374 0.0149921 -2.10599e-19)
(1.02059 0.0323307 -9.48432e-20)
(1.01975 0.0329364 -1.09372e-19)
(1.01778 0.045783 1.92163e-19)
(1.05379 0.0445728 0)
(1.04222 0.0853002 0)
(-0.0122337 1.7923 -2.25003e-20)
(-0.0105896 1.78535 -1.82132e-21)
(-0.0114673 1.78533 0)
(-0.00831883 1.79579 2.37156e-20)
(-0.00636872 1.79242 3.19336e-21)
(-0.00528111 1.7944 -3.82976e-21)
(-0.00826687 1.80837 4.79413e-20)
(-0.00775892 1.80539 -2.86174e-21)
(-0.00831852 1.80456 1.53595e-20)
(-0.00569556 1.80589 -2.4117e-20)
(-0.00680263 1.80611 -3.01897e-21)
(-0.0137519 1.78373 5.81646e-22)
(-0.0144758 1.78228 2.27994e-20)
(0.123473 1.18587 -4.89266e-19)
(-0.0890462 1.58003 -6.81035e-19)
(0.634141 1.29816 -6.27618e-19)
(0.487757 1.26886 -3.19777e-19)
(0.51466 1.35456 0)
(0.484259 2.17177 1.90564e-19)
(0.680295 2.08978 2.87535e-19)
(0.258858 1.95151 1.06182e-19)
(0.200904 2.28066 -4.2207e-19)
(0.19514 2.349 4.24273e-19)
(0.392244 2.07955 0)
(0.33639 1.95578 -4.76704e-19)
(0.0982378 1.91036 8.80914e-19)
(0.213058 1.92894 -7.05926e-20)
(0.174602 1.86996 -1.18681e-18)
(0.911038 2.43483 -2.4155e-20)
(0.834602 2.3776 0)
(1.00974 -0.00401662 9.85937e-21)
(1.01292 -0.011888 -8.14711e-21)
(1.01402 -0.0135306 -1.43566e-19)
(1.02226 -0.0150546 1.46179e-19)
(1.02016 -0.00765706 0)
(0.700844 1.20268 0)
(0.700804 1.166 0)
(0.765536 1.05959 0)
(0.674411 1.15884 0)
(1.14373 2.594 7.36529e-20)
(1.04208 2.31257 0)
(0.960457 2.15416 9.93207e-22)
(0.904718 2.58755 0)
(1.05624 2.60708 8.40275e-20)
(1.07367 2.52328 0)
(0.830766 0.154526 0)
(0.79893 0.167359 8.39613e-20)
(0.888174 0.122544 4.29462e-19)
(0.852789 0.104012 -1.71845e-19)
(0.856036 0.065236 -5.15788e-19)
(1.01385 0.214025 -2.62604e-19)
(0.939796 0.249568 -1.69978e-20)
(0.901201 0.244617 3.78386e-19)
(0.963108 0.186762 2.90191e-19)
(0.914501 0.162512 -5.39858e-19)
(0.887924 0.168828 6.93948e-20)
(0.925075 0.219469 -1.35294e-19)
(0.899267 0.186643 0)
(0.96994 0.164967 -2.60217e-19)
(0.999802 0.169836 0)
(0.993989 0.190259 0)
(1.04562 0.0967345 8.53029e-20)
(1.01537 0.157371 -1.20685e-20)
(1.00777 0.218229 -1.33937e-19)
(1.0466 0.191226 0)
(1.008 0.0252318 2.20154e-19)
(1.0094 0.0406718 2.63114e-19)
(1.01186 0.0302973 -2.1791e-19)
(1.00676 0.045043 -1.76755e-19)
(0.998032 0.0503236 -2.90363e-19)
(0.967102 0.13306 0)
(0.990859 0.0860845 0)
(0.964023 0.0449914 -2.04794e-19)
(0.924535 0.0531036 8.46773e-20)
(0.99757 0.0784861 2.50941e-19)
(1.0095 0.0942637 -2.59748e-19)
(1.0212 0.134894 2.3673e-19)
(1.00437 0.122156 0)
(1.02008 0.0798066 0)
(1.00977 0.066594 -1.07648e-19)
(1.00927 0.0697556 -2.01763e-19)
(0.552176 1.17888 -3.30755e-20)
(0.552343 1.53802 9.45667e-20)
(1.09335 2.76841 5.53377e-20)
(1.18739 3.10592 -6.95489e-20)
(1.21027 2.71073 4.8573e-19)
(1.24239 2.70304 -3.10416e-19)
(1.16794 2.31414 -8.59395e-21)
(1.16952 2.99932 1.70802e-19)
(1.1897 2.95339 -1.64155e-19)
(1.18503 3.25904 -2.63418e-19)
(1.34913 2.97857 3.65152e-19)
(1.34472 2.89387 0)
(0.499539 0.831228 -1.28773e-20)
(0.176239 1.29552 3.6806e-19)
(0.512124 0.55096 3.62307e-19)
(0.343429 0.327609 4.04489e-19)
(0.557686 0.453891 4.09252e-19)
(0.540322 0.503651 -6.47793e-19)
(0.540173 0.528339 5.30357e-19)
(0.516554 0.474179 -2.15496e-19)
(0.489668 0.434125 4.94878e-19)
(0.783837 0.259532 5.69985e-19)
(0.75615 0.288314 0)
(0.75654 0.255984 1.23002e-20)
(0.677204 0.51461 1.89009e-19)
(0.656775 0.483165 -7.00064e-19)
(0.598834 0.500101 2.06492e-20)
(0.61966 0.473352 0)
(0.620967 0.721638 1.46647e-19)
(0.774778 0.77093 5.79266e-20)
(0.709808 0.824746 -7.59216e-20)
(0.814518 0.803188 -1.84896e-20)
(0.875672 0.831206 1.48351e-20)
(0.882871 0.843917 -1.51732e-20)
(0.779891 0.622166 -2.24677e-19)
(0.857191 0.701486 1.71979e-20)
(0.928458 0.699617 0)
(0.915064 0.662946 -1.90916e-20)
(0.962326 0.287995 6.42218e-20)
(1.06557 0.264587 1.48954e-20)
(1.00124 0.242095 1.073e-19)
(0.935941 0.326867 -1.45253e-19)
(0.980145 0.404551 0)
(1.04571 0.383727 0)
(0.862167 0.334723 5.13733e-21)
(0.848595 0.279298 0)
(0.847552 0.244646 2.01218e-19)
(0.885066 0.251868 -3.01454e-21)
(0.869005 0.408949 7.8204e-19)
(0.82462 0.47219 1.97313e-19)
(0.822831 0.436157 -2.49586e-19)
(0.760199 0.429644 -2.68024e-19)
(0.747558 0.432261 1.82432e-19)
(0.734391 0.424767 -1.78721e-19)
(1.02419 0.00490993 2.36992e-19)
(1.03166 -0.00274629 0)
(1.03096 -0.00802964 1.57154e-19)
(1.02273 -0.00609455 -2.87831e-21)
(1.03621 0.00291956 1.67152e-19)
(1.03157 0.006614 -3.62804e-19)
(1.0293 0.00555084 0)
(1.02331 0.00833522 -7.51824e-20)
(1.02826 0.00621908 1.8901e-19)
(1.02005 0.012623 -9.51104e-20)
(1.02127 0.0131803 6.93249e-20)
(-0.0101749 1.77462 0)
(-0.022364 1.78927 0)
(-0.0178076 1.75649 0)
(-0.00863196 1.75981 0)
(-0.0788573 1.75412 -2.39137e-20)
(-0.0805016 1.71281 2.89798e-21)
(-0.126346 1.86552 -2.76873e-20)
(-0.158927 1.73972 -6.9192e-20)
(-0.0372244 1.79289 -4.8504e-20)
(-0.0490828 1.78919 3.45363e-20)
(-0.0594514 1.75873 -5.98444e-21)
(-0.0471315 1.77988 -1.32447e-20)
(-0.0325474 1.78136 1.22809e-21)
(-0.0293624 1.78547 4.51366e-21)
(-0.0336876 1.85121 -1.88772e-19)
(-0.0245571 1.88181 0)
(-0.0641391 1.8762 1.15606e-19)
(-0.0915098 1.86727 6.69075e-20)
(-0.105483 2.08295 -6.10568e-20)
(0.0415448 2.03683 0)
(0.0120817 2.08885 -4.40864e-19)
(0.010829 2.20163 3.0959e-19)
(-0.0666106 1.99225 -2.71094e-19)
(-0.0646804 1.93476 1.11569e-19)
(-0.0165563 1.95435 0)
(-0.0285328 1.8087 -1.31023e-19)
(-0.0206615 1.81429 -1.77173e-19)
(-0.020668 1.81325 0)
(-0.0265109 1.82389 -5.22604e-21)
(-0.0368353 1.8217 6.86972e-20)
(-0.0201314 1.79333 5.2484e-21)
(-0.0233968 1.79041 -8.60045e-20)
(-0.0248286 1.78971 1.9616e-20)
(-0.0205263 1.79176 3.60079e-20)
(-0.0141947 1.79854 0)
(-0.0239236 1.78749 0)
(-0.0168531 1.7939 2.76455e-20)
(-0.0184122 1.7859 -8.78495e-21)
(-0.0238868 1.7869 0)
(-0.0220698 1.79018 2.20196e-20)
(-0.0169565 1.7942 -4.17728e-20)
(1.02471 0.0164835 0)
(1.02656 0.0148939 -2.24926e-20)
(1.02426 0.0148593 -1.69032e-19)
(1.02412 0.0180496 0)
(1.02443 0.0203909 0)
(1.02694 0.00875139 -4.56362e-21)
(1.02732 0.00930187 2.78627e-19)
(1.02379 0.00835748 3.40825e-19)
(1.02288 0.00579046 0)
(1.01911 0.00597341 0)
(1.02135 0.0140376 1.71011e-19)
(1.01863 0.0121851 0)
(1.01955 0.0112516 0)
(-0.0119642 1.79369 0)
(-0.0143927 1.78182 2.00953e-21)
(-0.0147655 1.78545 1.29322e-20)
(-0.016354 1.78667 0)
(-0.0148562 1.78332 1.79122e-20)
(-0.013037 1.78499 -7.77607e-21)
(-0.0133097 1.78443 0)
(0.448368 2.28769 0)
(-0.081528 1.70867 1.27286e-18)
(0.0248445 2.23695 0)
(0.330281 1.15985 -7.80315e-19)
(0.433742 1.06849 0)
(0.34047 1.14231 6.78581e-19)
(1.08703 2.73242 1.73878e-22)
(0.938882 2.46434 3.09988e-20)
(0.801398 2.15781 3.12071e-19)
(0.885057 2.40317 1.23541e-19)
(0.96615 2.59902 0)
(0.998081 2.54544 0)
(0.87694 2.42625 0)
(0.915181 2.37114 -3.81602e-19)
(0.562867 2.68636 7.61223e-20)
(0.89832 2.63112 1.09461e-20)
(0.900429 2.5926 -8.97729e-21)
(0.59329 2.30689 0)
(0.768409 2.38813 0)
(0.751844 2.2635 -2.5463e-19)
(0.767706 2.65755 0)
(0.596223 1.11678 0)
(0.455067 0.904874 -1.48982e-20)
(0.518893 0.942056 -2.17812e-21)
(0.469039 1.07141 0)
(0.473822 1.02804 2.30026e-20)
(0.742475 0.859221 1.42587e-20)
(0.784313 0.980439 0)
(0.75585 0.939236 -6.80205e-20)
(0.616952 1.02418 0)
(0.631946 0.923026 0)
(1.13401 2.73602 -1.54109e-21)
(1.09922 2.81726 3.30731e-20)
(0.902342 2.34506 -1.21473e-19)
(0.882891 2.31115 2.00125e-22)
(1.1062 2.71211 0)
(1.08937 2.67015 1.36811e-21)
(1.05098 2.44588 -1.26653e-19)
(0.935938 2.15059 -3.11771e-20)
(0.74151 1.4708 0)
(0.667136 1.15904 2.9269e-20)
(0.681042 1.18596 0)
(0.84042 0.201913 0)
(0.811693 0.179545 0)
(0.776306 0.186891 0)
(0.841935 0.206326 -3.1675e-19)
(0.798352 0.212925 1.93475e-19)
(0.925307 0.0509005 -1.68106e-19)
(0.932709 0.0962746 0)
(0.907059 0.0985218 8.05875e-20)
(0.884087 0.0654829 3.2901e-19)
(0.886123 0.0586197 -2.02693e-19)
(1.14411 3.38463 -9.73014e-19)
(1.18611 3.30564 0)
(1.1515 3.40926 -1.91893e-18)
(0.644661 3.56921 1.64706e-18)
(0.871163 3.13623 4.205e-19)
(0.493583 0.837713 1.88097e-19)
(0.396263 0.842133 0)
(0.353972 0.561263 -7.92022e-20)
(0.412499 0.67487 -3.55962e-19)
(0.509416 0.544031 -1.1253e-19)
(0.49532 0.55974 1.24437e-19)
(0.607471 0.53572 2.66019e-19)
(0.625284 0.551321 0)
(0.587133 0.617174 0)
(0.543472 0.557777 0)
(0.915512 0.576728 -4.54945e-20)
(0.830801 0.516798 -1.90662e-19)
(0.864548 0.558276 9.20189e-20)
(0.892956 0.495048 -1.40057e-19)
(1.00827 0.466384 0)
(1.00497 0.546663 -8.2642e-21)
(0.797259 0.374604 -4.0056e-19)
(0.807378 0.355103 6.07103e-19)
(0.783702 0.387063 3.13154e-19)
(0.791529 0.346106 -3.56346e-19)
(0.836587 0.290161 -2.49716e-19)
(0.814593 0.292096 3.14196e-19)
(1.03563 0.00436013 -1.69887e-19)
(1.03533 0.00555587 3.52056e-19)
(1.02695 0.00940941 2.24425e-19)
(1.02923 0.0127737 -2.66883e-19)
(1.02467 0.0168409 0)
(1.02848 0.0117957 -4.38825e-19)
(-0.0452845 1.81781 2.70462e-20)
(-0.05431 1.81974 0)
(-0.0612833 1.82552 1.93114e-19)
(-0.0676978 1.85733 -1.71272e-19)
(-0.106386 1.85097 4.95725e-20)
(-0.0864695 1.83851 0)
(-0.0153941 1.79496 0)
(-0.0195075 1.789 -9.53917e-21)
(-0.0179047 1.78472 8.49667e-21)
(-0.0162068 1.78411 2.27495e-21)
(-0.0138225 1.79214 -1.75034e-20)
(-0.013802 1.79447 -2.85905e-20)
(0.815489 1.47243 6.7114e-19)
(0.778125 1.61147 7.8519e-19)
(0.506552 1.24553 7.84059e-19)
(0.665878 1.6056 -5.43278e-20)
(0.729648 1.15649 0)
(0.584236 1.09051 6.12221e-19)
(0.605008 1.17229 -5.89502e-19)
(0.556173 1.01645 -7.6817e-19)
(0.770208 1.10934 0)
(0.741363 1.1847 0)
(0.438636 2.65007 -1.17082e-19)
(0.558843 2.56021 6.11486e-19)
(0.648816 2.60905 -4.12472e-19)
(0.444592 2.57482 -1.64169e-19)
(0.206069 2.65596 1.44815e-19)
(0.232216 2.53425 -4.54638e-19)
(0.939886 2.33202 -1.79459e-19)
(0.976055 2.33379 0)
(0.843831 2.07405 -3.54792e-19)
(1.06999 2.65942 0)
(1.05506 2.65369 0)
(0.619309 2.3289 2.73055e-19)
(1.01205 3.19128 4.79864e-19)
(0.88586 3.06149 -4.62858e-19)
(0.331042 0.971206 0)
(0.353171 0.834865 -1.30591e-19)
(0.473586 0.76358 -4.38885e-19)
(0.410667 2.10343 0)
(0.492297 2.81695 -2.9264e-19)
(0.437122 2.58326 0)
(0.64302 0.664038 -3.03921e-19)
(0.698055 0.680602 3.94393e-19)
(0.735813 0.626434 2.79675e-19)
(0.604552 0.636525 4.58068e-20)
(0.657239 0.593843 -1.89285e-19)
(0.963657 2.80172 -3.64528e-19)
(0.998156 2.87345 2.72791e-19)
(0.622913 2.22374 1.24409e-20)
(0.583389 1.78378 -4.74013e-20)
(0.656797 1.99349 9.01267e-20)
(0.954816 2.50153 -7.47985e-20)
(0.96171 2.51969 -1.17693e-19)
(0.661861 1.94106 -4.18181e-21)
(0.400843 1.42412 -9.20309e-20)
)
;

boundaryField
{
    wall-4
    {
        type            noSlip;
    }
    velocity-inlet-5
    {
        type            fixedValue;
        value           uniform (1 0 0);
    }
    velocity-inlet-6
    {
        type            fixedValue;
        value           uniform (0 3 0);
    }
    pressure-outlet-7
    {
        type            zeroGradient;
    }
    wall-8
    {
        type            noSlip;
    }
    frontAndBackPlanes
    {
        type            empty;
    }
}


// ************************************************************************* //
