/*--------------------------------*- C++ -*----------------------------------*\
| =========                 |                                                 |
| \\      /  F ield         | OpenFOAM: The Open Source CFD Toolbox           |
|  \\    /   O peration     | Version:  2412                                  |
|   \\  /    A nd           | Website:  www.openfoam.com                      |
|    \\/     M anipulation  |                                                 |
\*---------------------------------------------------------------------------*/
FoamFile
{
    version     2.0;
    format      ascii;
    arch        "LSB;label=32;scalar=64";
    class       volScalarField;
    location    "7";
    object      p;
}
// * * * * * * * * * * * * * * * * * * * * * * * * * * * * * * * * * * * * * //

dimensions      [0 2 -2 0 0 0 0];

internalField   nonuniform List<scalar> 
38
(
-0.700878
-0.52383
-0.647251
-0.571361
-0.765714
-0.489676
-0.588276
-0.65081
-0.623394
-0.821977
-0.304944
-0.242582
-0.378608
-0.214881
-0.372266
-0.279013
-0.348874
-0.0939953
0.0333366
-0.293197
-0.28893
-0.400001
-0.170917
-0.200407
0.127415
0.08281
-0.169465
-0.0602074
0.00444912
-0.231464
0.20648
0.0930469
-0.147564
-0.109842
-0.180992
0.00314211
-0.0168455
-0.0765789
)
;

boundaryField
{
    wall-4
    {
        type            zeroGradient;
    }
    velocity-inlet-5
    {
        type            zeroGradient;
    }
    velocity-inlet-6
    {
        type            zeroGradient;
    }
    pressure-outlet-7
    {
        type            fixedValue;
        value           nonuniform List<scalar> 0();
    }
    wall-8
    {
        type            zeroGradient;
    }
    frontAndBackPlanes
    {
        type            empty;
    }
    procBoundary21to6
    {
        type            processor;
        value           nonuniform List<scalar> 2(-0.437092 -0.267151);
    }
    procBoundary21to18
    {
        type            processor;
        value           uniform 0.145285;
    }
    procBoundary21to19
    {
        type            processor;
        value           nonuniform List<scalar> 4(-0.230143 -0.248915 -0.478521 -0.478521);
    }
    procBoundary21to22
    {
        type            processor;
        value           nonuniform List<scalar> 3(-0.833572 -0.306685 0.0380093);
    }
    procBoundary21to23
    {
        type            processor;
        value           nonuniform List<scalar> 3(0.22393 0.198561 0.185436);
    }
}


// ************************************************************************* //
