/*--------------------------------*- C++ -*----------------------------------*\
| =========                 |                                                 |
| \\      /  F ield         | OpenFOAM: The Open Source CFD Toolbox           |
|  \\    /   O peration     | Version:  2412                                  |
|   \\  /    A nd           | Website:  www.openfoam.com                      |
|    \\/     M anipulation  |                                                 |
\*---------------------------------------------------------------------------*/
FoamFile
{
    version     2.0;
    format      ascii;
    arch        "LSB;label=32;scalar=64";
    class       volScalarField;
    location    "4";
    object      p;
}
// * * * * * * * * * * * * * * * * * * * * * * * * * * * * * * * * * * * * * //

dimensions      [0 2 -2 0 0 0 0];

internalField   nonuniform List<scalar> 
38
(
0.231935
0.205532
0.185039
0.156927
0.141798
0.128032
0.212162
0.219449
0.127746
0.105032
0.0639582
0.0686981
-0.0563511
0.116587
0.141745
0.172291
0.140177
0.200093
0.181263
0.107142
0.0238974
0.17348
0.190485
0.186777
0.126964
0.212985
0.240381
0.0831206
0.0862827
0.0762993
0.099522
0.101659
0.112633
0.0887852
0.132484
0.111768
0.0745485
0.075001
)
;

boundaryField
{
    wall-4
    {
        type            zeroGradient;
    }
    velocity-inlet-5
    {
        type            zeroGradient;
    }
    velocity-inlet-6
    {
        type            zeroGradient;
    }
    pressure-outlet-7
    {
        type            fixedValue;
        value           nonuniform List<scalar> 0();
    }
    wall-8
    {
        type            zeroGradient;
    }
    frontAndBackPlanes
    {
        type            empty;
    }
    procBoundary14to12
    {
        type            processor;
        value           nonuniform List<scalar> 3(-0.0926906 0.0559605 0.0420186);
    }
    procBoundary14to13
    {
        type            processor;
        value           nonuniform List<scalar> 6(0.108287 0.0662154 0.0927217 0.107969 0.0814434 0.0738022);
    }
    procBoundary14to22
    {
        type            processor;
        value           nonuniform List<scalar> 6(0.266396 0.26293 0.154063 -0.0931721 0.246068 0.264981);
    }
}


// ************************************************************************* //
