/*--------------------------------*- C++ -*----------------------------------*\
| =========                 |                                                 |
| \\      /  F ield         | OpenFOAM: The Open Source CFD Toolbox           |
|  \\    /   O peration     | Version:  2412                                  |
|   \\  /    A nd           | Website:  www.openfoam.com                      |
|    \\/     M anipulation  |                                                 |
\*---------------------------------------------------------------------------*/
FoamFile
{
    version     2.0;
    format      ascii;
    arch        "LSB;label=32;scalar=64";
    class       volScalarField;
    location    "19";
    object      p;
}
// * * * * * * * * * * * * * * * * * * * * * * * * * * * * * * * * * * * * * //

dimensions      [0 2 -2 0 0 0 0];

internalField   nonuniform List<scalar> 
918
(
0.238838
0.922488
0.0101272
0.237723
-0.00119405
0.889608
-0.829552
0.418508
0.218834
-0.439218
-0.0332221
0.207714
0.750162
0.518123
-1.45335
0.00721499
0.373385
-0.707717
0.217539
-0.00164136
0.495408
0.225615
0.228603
0.219168
0.278135
0.50795
0.630892
0.00247743
-0.00139736
-0.00383569
0.00443575
-0.00602714
6.51896e-05
0.77322
0.824347
0.847016
0.188279
0.0179238
-0.677474
-0.755935
-0.741272
-0.881813
0.406083
0.411016
-0.476307
0.421332
0.437194
0.206496
0.218088
0.218937
0.220406
0.219203
0.220646
0.176526
-0.455503
-0.476064
-0.406866
-0.374766
-0.0291502
-0.0571844
-0.0874605
-0.0124552
-0.00722479
0.145451
0.204441
0.203294
0.213314
0.222795
0.86204
0.833907
0.860056
0.773896
0.790343
0.72808
0.700635
0.537504
0.558968
0.505179
0.49417
-1.89712
-2.87163
-0.850771
-0.59069
0.000329429
0.00971942
0.0122999
0.35965
0.367956
0.371268
0.383317
0.779001
-0.696087
-0.843323
0.21758
0.216225
0.224922
0.225559
0.221546
0.220642
0.00689379
0.0147279
-0.0114532
-0.00223185
-0.00506664
0.47844
0.473185
0.219699
0.216758
0.230354
0.25294
0.241349
-0.011487
0.289056
0.310672
0.313538
0.490126
0.487904
0.495173
0.604272
0.56802
0.668085
0.691222
0.0134264
0.00381684
0.00198754
0.00218802
0.00138783
0.184332
0.177305
0.200715
0.191849
0.193926
-0.0662218
-0.201403
0.10228
0.12588
-0.585039
-0.652123
-0.764035
-0.778221
-0.899684
0.238759
0.395162
0.398085
-0.493556
-0.409231
-0.556787
-0.334939
-0.40678
0.197647
0.204164
0.199549
0.213993
0.208592
0.210552
0.222237
0.219336
0.220915
0.213438
0.30937
0.125837
0.0581454
-0.577615
-0.49412
-0.570361
-0.34158
-0.287591
-0.0435324
-0.0556964
-0.0408008
-0.00981407
-0.241118
-0.128622
-0.184519
0.00236601
0.00332785
0.138461
0.129442
0.154614
0.161063
0.196075
0.197081
0.200564
0.198476
0.651192
0.673562
0.681237
0.65495
-3.88458
-6.7105
-0.256088
-0.112382
0.00282162
0.00279064
0.00204372
0.004655
0.0027391
0.000977624
0.00657822
0.00781194
0.01246
0.0131615
0.343951
0.348478
0.701066
0.694556
0.69056
0.671682
0.205464
0.207536
0.213258
0.209133
0.0115404
0.0165475
0.0127342
0.43954
0.459211
0.456466
-0.0470812
-0.13487
0.0354724
0.0619437
0.331055
0.316067
0.333
0.377116
0.41583
0.69867
0.717119
0.715282
0.723866
0.767825
0.784176
0.74962
0.166121
0.173045
0.169224
0.204572
0.202134
0.203064
0.196825
0.199384
0.19619
-0.35561
-0.742154
0.195965
0.208353
0.169971
0.178089
0.327009
0.40151
0.377129
0.386881
0.390732
-0.271383
-0.337054
0.000746513
-0.0186338
0.0869981
0.118497
0.102354
0.622448
0.582949
0.632925
0.606193
0.56756
0.593069
-0.694039
-2.22626
-1.32565
0.253688
0.0583507
0.150159
0.00324341
-0.00359812
0.00264538
0.660167
0.738668
0.376726
0.558212
0.560195
0.455682
0.486763
0.541733
0.467755
0.501796
0.536614
0.516753
0.195513
0.196766
0.17361
0.473812
0.530413
-0.160592
-0.209493
-0.265322
-0.0816843
-0.0459571
-0.0693131
0.709961
0.595924
0.673831
0.216592
0.217248
0.0117405
0.0197091
0.220989
0.220836
0.00612379
0.00537947
0.130254
-1.16494
-0.1672
0.209371
0.200231
0.2167
-0.452643
0.0396702
-0.0674696
0.0634982
0.0731878
0.207026
0.154973
0.121793
0.00575668
0.0148701
-0.00202894
-0.519761
0.214256
0.212613
0.216307
0.217373
0.218034
0.00638503
0.00796694
0.00584379
0.000370043
0.0033104
0.00040723
0.182829
0.196711
-0.478155
0.21621
0.218513
0.218196
0.211254
0.21675
0.215089
0.0120659
0.00648004
0.00501322
-0.0601841
0.0539455
0.388449
0.497602
0.340956
0.111928
-0.133374
0.283312
0.352647
0.249126
0.417268
0.380752
0.405742
-0.107254
-0.253532
-0.0990635
-0.155657
0.20718
0.205791
0.198589
0.196154
0.211688
0.209887
0.21414
0.211229
0.213995
0.215495
-0.467623
-0.38258
-0.439322
-0.464938
-0.00531725
0.282771
-0.122069
0.0179962
-0.0952372
-0.0389364
-0.0192287
-0.110776
-0.1307
-0.0836646
0.0456379
0.0602341
-0.0105664
0.0640088
0.0108615
-0.0698499
0.0135444
-0.0263758
0.201521
0.198292
0.206641
0.21342
0.162557
0.164331
0.137183
0.152934
0.141804
0.0858768
0.118901
0.0971151
0.00661417
0.00695277
0.00561155
0.0184292
0.0169824
0.00769718
0.00783472
0.0141958
0.00796659
0.00646523
0.00186212
0.00967804
-0.480074
-0.593371
0.677249
0.673418
-0.110321
0.203504
0.209872
0.206736
0.211115
0.214359
0.215223
0.213135
0.209491
0.19764
0.199812
0.196008
0.196051
-0.422347
-0.556488
-0.375925
-0.437189
-0.175757
0.321908
0.0664576
0.00730648
0.00324844
0.213214
0.603563
0.414353
0.450107
0.477172
-0.664581
-0.261432
-0.593939
0.022978
-0.15861
0.385915
0.438702
0.462522
0.408166
0.356618
-0.428802
0.211054
-0.351157
-0.310276
-0.12261
-0.22034
0.434724
0.365179
0.371958
0.396418
0.4216
0.371993
0.350489
0.349781
0.385276
0.389459
0.187146
-0.0278755
-0.0738607
-0.109329
0.353509
0.226948
0.283074
0.201284
0.201651
0.204889
0.203348
0.187044
0.194361
0.190355
0.194159
0.197567
0.207434
0.207199
0.202863
0.205283
-0.365401
-0.354694
-0.426062
-0.4525
-0.459452
-0.511605
-0.408674
-0.362351
-0.503446
-0.0187117
0.0181593
-0.303363
-0.390445
-0.361811
-0.35188
-0.141797
-0.0836553
-0.39346
-0.0845577
-0.248421
-0.288394
-0.0597363
-0.0652388
-0.092974
-0.137258
-0.215356
-0.128129
-0.00973864
-0.130767
-0.110614
0.0112086
-0.00572666
-0.0133096
0.000517443
-0.26624
-0.263306
-0.226122
-0.374767
0.0137728
0.0164903
0.0180706
0.0187627
0.0246701
0.0243963
0.194985
0.195465
0.194616
0.20946
0.220745
0.235866
0.203622
0.181436
0.173509
0.17531
0.152249
0.159953
0.157227
0.168824
0.18602
0.193751
0.192292
0.195006
0.179643
0.180927
0.169909
0.173548
0.153284
0.136072
0.126556
0.0102199
0.00742975
0.00852882
0.00827336
0.00849567
0.00874718
0.0281703
0.0232587
0.0264015
0.021254
0.0132899
0.0148964
0.0116224
-0.391334
-0.323303
-0.503255
-0.536938
-0.60298
0.587331
0.697516
0.537984
0.28935
0.301242
0.524364
0.646287
0.26956
0.458653
0.515964
0.195946
0.49092
0.207917
0.20738
0.205406
0.204612
0.205842
-0.3259
-0.22513
-0.214943
-0.162494
-0.0445723
0.0690353
-0.0143476
-0.163453
-0.0153335
0.00335246
0.316528
0.330089
0.274494
0.30135
0.301121
0.128541
0.20215
0.258037
0.21313
0.254276
0.276269
0.240889
0.268337
0.215251
0.175232
0.174375
0.123205
0.141659
0.119237
0.102545
0.197217
0.177613
0.186449
0.179715
0.19813
0.226375
0.220815
0.243872
0.257607
0.185815
0.148768
0.156711
0.183286
0.147779
0.15955
0.173339
-0.103321
-0.199636
-0.118371
-0.417333
-0.322616
-0.337779
-0.384258
-0.34798
-0.0604578
-0.769998
-0.732622
-1.37169
0.149295
0.634778
0.386062
0.356405
0.419344
0.394884
0.396395
0.431674
0.438392
0.342873
0.357102
0.360847
0.31508
0.339945
0.37094
0.366911
0.192207
0.0778072
0.064945
0.034171
-0.084831
-0.0553668
0.143979
0.0671406
-0.00226038
0.00486949
0.162871
0.0588696
0.120877
0.15712
0.090525
0.0491783
0.242977
0.312486
0.302151
0.275006
0.190762
0.20353
0.227255
0.263707
0.290711
0.323909
0.196002
0.20038
0.201409
0.199445
0.19673
0.199246
0.19901
0.201707
0.202669
0.205334
0.204465
-0.194556
-0.241993
-0.318154
-0.24744
-0.579673
-0.583819
-0.520048
-0.48578
-0.33019
-0.405922
-0.506579
-0.417564
-0.343598
-0.312622
-0.368565
-0.343692
-0.288657
-0.391856
-0.0509924
0.0929056
0.174609
0.0659406
-0.0896998
-0.0746743
-0.0564912
-0.234053
-0.0971198
-0.097862
-0.161066
-0.259514
-0.0226065
-0.0227464
-0.0270245
-0.0164875
-0.0438597
-0.0163807
0.00999365
0.00583875
0.00124396
0.00536909
0.0102621
0.184988
0.177914
0.176576
0.172926
0.172619
0.181553
0.186367
0.188551
0.193752
0.194736
0.186606
0.19117
0.193936
0.0194831
0.0155643
0.0193498
0.00740361
0.0112569
0.0138748
0.00919891
-0.220952
-0.24355
-0.232733
-0.306663
-0.438702
-0.381384
0.148623
0.118436
0.162372
0.361684
0.21785
0.135422
0.205028
0.312367
-0.0727422
0.136335
-0.0421601
0.567857
0.444705
0.588012
0.211943
-0.0896149
0.0507517
0.107694
-0.0856974
-0.0146185
0.00509307
-0.103053
-0.0699012
-0.0409611
0.0563001
-0.0578982
-0.0862613
-0.329246
-0.146201
-0.020414
-0.0426419
0.0874624
0.14991
-0.0711457
-0.150074
-0.196327
0.305143
0.324734
0.341703
0.312264
0.336558
0.261939
0.254053
0.271885
0.28277
0.276171
-1.10582
-0.818908
-1.75771
-1.06855
-0.628835
0.175745
0.133758
0.419541
0.316399
0.399365
0.383005
0.34548
0.307649
0.314386
0.352225
0.0585531
0.163875
0.139503
0.14529
0.0520773
-0.0113773
0.277304
0.272141
0.306618
0.330841
0.300961
0.33244
0.193041
0.192145
0.193455
0.189744
0.189255
0.189875
-0.489544
-0.451804
-0.456513
-0.464129
-0.507493
-0.496886
0.0260437
0.00594324
0.00662081
0.00907666
0.0282314
0.0275059
-0.175958
-0.236672
-0.294618
-0.28523
-0.32727
-0.390962
-0.408483
-0.305642
-0.223233
-0.232811
0.0845175
0.338336
0.157659
0.33913
0.195034
0.244282
0.165694
0.156373
0.192105
0.0560733
0.12964
-0.145171
-0.633179
-0.544914
0.432902
0.45353
0.234643
0.036216
-0.184422
0.0161829
0.224669
0.165755
0.205326
0.272866
0.265994
-0.340436
-0.259795
-0.0419575
0.18728
-0.101342
-0.109195
-0.112797
0.0452421
-0.0197831
)
;

boundaryField
{
    wall-4
    {
        type            zeroGradient;
    }
    velocity-inlet-5
    {
        type            zeroGradient;
    }
    velocity-inlet-6
    {
        type            zeroGradient;
    }
    pressure-outlet-7
    {
        type            fixedValue;
        value           uniform 0;
    }
    wall-8
    {
        type            zeroGradient;
    }
    frontAndBackPlanes
    {
        type            empty;
    }
}


// ************************************************************************* //
