/*--------------------------------*- C++ -*----------------------------------*\
| =========                 |                                                 |
| \\      /  F ield         | OpenFOAM: The Open Source CFD Toolbox           |
|  \\    /   O peration     | Version:  2412                                  |
|   \\  /    A nd           | Website:  www.openfoam.com                      |
|    \\/     M anipulation  |                                                 |
\*---------------------------------------------------------------------------*/
FoamFile
{
    version     2.0;
    format      ascii;
    arch        "LSB;label=32;scalar=64";
    class       surfaceScalarField;
    location    "19";
    object      phi;
}
// * * * * * * * * * * * * * * * * * * * * * * * * * * * * * * * * * * * * * //

dimensions      [0 3 -1 0 0 0 0];

oriented        oriented;

internalField   nonuniform List<scalar> 
1300
(
3.75095
5.62643
-6.03472
3.75095
-5.88834
5.62643
-4.55505
4.55505
-1.28489
1.28489
1.87671
1.87425
-2.71574
2.71574
-4.07229
4.07229
-2.68194
2.68194
-5.24648
5.24648
-5.06821
5.06821
4.68516
-4.68516
-4.78595
4.78595
-1.76465
1.76465
-3.81912
3.81912
3.17038
-3.17038
-4.6438
4.6438
-0.449287
0.449287
-0.553316
4.30427
3.19764
3.19764
-2.38992
2.38992
-4.85382
4.85382
6.21838
-6.21838
9.12792
-9.12792
-3.0932
-3.43178
1.32334
-8.21236
-4.565
-4.565
-8.44042
8.44042
-2.81399
2.81244
2.93812
-2.93812
-1.75307
1.75307
-4.50273
-0.0523242
-4.50273
4.54049
0.0145601
4.54049
-1.39641
0.111523
-1.39641
4.02324
-4.02324
1.13704
0.147854
1.13704
3.064
-3.064
-1.87701
3.75372
1.87394
-1.87159
6.17586
-1.87936
3.75361
-5.64086
5.64086
-3.00205
0.286306
-3.00205
2.66813
0.0476109
2.66813
-5.26783
5.26783
-3.75446
-0.317831
-3.75446
4.30106
-0.228774
4.30106
2.90744
-2.90744
-2.7153
0.0333591
-2.7153
2.62969
0.0522441
2.62969
0.353579
5.27285
-5.98001
8.79245
-5.27285
0.0263727
5.20855
0.0379265
5.20855
-5.10603
0.037822
-5.10603
5.00948
0.0587294
5.00948
4.77942
-0.0942675
4.77942
-4.79783
0.112671
-4.79783
-3.33063
-3.46648
-4.87761
0.0916616
-4.87761
-1.7463
-0.018349
-1.7463
1.71758
0.0470738
1.71758
-3.49919
3.49919
-4.26708
0.447963
-4.26708
3.12585
0.0445288
3.12585
1.86868
1.88228
5.61963
-5.61963
2.44925
-4.57872
-0.0650862
-4.57872
-4.74435
-4.38356
4.74435
-0.100551
-0.75581
0.306522
-0.75581
3.15947
0.0381645
3.15947
2.55196
0.077734
-2.55196
0.162038
3.357
-3.357
1.75771
0.632212
1.75771
-5.57047
5.57047
4.94935
0.0601276
-4.94935
0.0955255
6.15724
0.0611444
6.15724
-6.19956
-0.0188203
-6.19956
3.33786
-6.76964
-3.45208
4.681
0.104947
-4.681
0.116006
2.90087
0.0372557
2.90087
-2.91984
2.91984
-2.98269
0.0445698
-2.98269
-2.16965
0.41658
-2.16965
1.43557
0.317499
1.43557
-4.36887
-0.133855
-4.36887
-4.44015
0.173068
4.44015
0.100342
0.919055
-0.919055
-1.52932
0.132909
-1.52932
-4.18065
-0.188226
4.18065
-0.157404
-3.90805
-0.115192
-3.90805
-3.02269
0.040001
3.02269
0.0413051
3.11216
0.0473175
-3.11216
0.048157
-1.87089
3.75316
-1.88007
3.75401
-5.43176
-0.209097
-5.43176
5.70874
-0.0678834
5.70874
3.43223
0.386895
-3.43223
0.430176
2.92222
-0.254091
2.92222
-5.24723
-0.0206038
-5.24723
5.22635
0.0414824
5.22635
3.32926
-0.407033
-3.32926
-0.425203
4.43639
-0.135326
4.43639
2.96447
-0.0570339
2.96447
-2.86981
-0.0376283
-2.86981
2.79073
-2.79073
2.7385
0.0522306
-2.7385
0.0231992
-11.1328
11.1139
-0.035155
-11.0976
5.1734
5.1734
4.20489
0.574531
4.20489
-5.00779
0.209967
-5.00779
3.30761
-6.75969
3.45657
-6.7872
3.45736
-11.6697
3.36769
-6.83418
5.08374
-5.08374
4.97173
0.112012
-4.97173
0.094116
-1.76232
0.0160125
-1.76232
-2.84547
-0.65372
-2.84547
4.20821
-0.709022
4.20821
-3.03324
3.03324
-3.08087
0.0476366
3.08087
0.0449764
4.51593
-0.0795364
-4.51593
-0.0627899
0.95853
0.178507
-0.95853
0.20272
3.56239
-0.205387
3.56239
-3.16446
-0.192544
-3.16446
-1.76685
0.00453602
1.76685
-0.00914314
-5.81829
0.247817
-5.81829
-11.1906
0.0930265
-11.1527
-6.10653
-6.10653
2.33389
11.1263
-2.867
-0.00281076
2.867
0.0338696
2.97843
0.0548032
-2.97843
0.0585935
-2.85794
0.0672134
2.85794
0.0619011
-2.55877
0.389118
-2.55877
-1.02246
1.02246
-1.20699
0.184532
1.20699
0.228586
1.1766
-0.257546
1.1766
1.6317
0.0858806
-1.6317
0.102374
-3.81334
-0.0947075
-3.81334
5.55047
0.158265
5.55047
-3.04292
-0.121536
3.04292
-0.0784495
-0.0332802
11.1472
-5.14012
0.0340894
5.14012
-11.2084
11.2425
-3.24242
0.683653
3.24242
0.962468
5.29435
0.276124
-5.29435
0.286554
5.18683
0.0395212
-5.18683
0.103091
-2.34934
-0.496125
-2.34934
-4.94992
-0.481839
4.94992
-0.741709
-11.4762
-0.201731
11.678
-11.4175
6.02002
0.137217
-6.02002
11.3797
-0.890434
-0.0286211
0.890434
0.132023
1.49036
-0.313756
1.49036
3.72616
-0.163772
-3.72616
-0.0871859
-5.35324
0.106012
5.35324
0.197232
-1.90678
-0.442567
1.90678
-0.41642
-4.26633
4.3045
1.90953
-3.28459
-3.48506
-7.66815
1.85201
1.90115
4.30126
-7.22019
-4.44952
-7.10419
7.27359
-6.98703
-9.30478
9.21051
7.49133
-7.60652
-5.78361
5.82858
6.48202
-6.44072
1.87821
1.87551
6.65553
-6.36923
-16.0472
15.8381
8.38258
-8.70041
13.4725
-13.4931
-13.8062
13.8457
-5.76541
5.79877
-6.64545
6.60782
-6.8194
6.74095
-3.24951
-3.53769
9.39214
-9.30048
11.6381
-11.7032
-8.37814
8.8261
3.38251
0.921986
3.42983
-1.88218
3.76038
-1.87143
3.78096
3.47095
-6.72046
3.28874
-6.7738
6.06166
5.57643
-5.96111
-1.70704
-5.8787
5.91596
-5.82123
5.88313
8.965
-9.01733
-1.88649
3.762
-1.86752
3.76867
-3.42455
-2.35906
3.38002
0.921241
5.7281
3.66405
-5.83304
-1.27114
-7.69798
7.5342
-7.98955
7.79701
-0.454961
5.82548
-5.37052
4.39886
-1.55229
7.37777
5.72129
5.93126
5.86825
-5.59213
1.11878
-6.4893
-6.39377
-2.58786
2.72076
2.61647
-2.46862
5.90033
1.591
5.74292
-5.48895
-2.11757
-5.58366
3.81836
2.01022
3.866
4.07633
2.4057
4.11633
3.02978
-3.0365
0.00671832
-3.05636
6.08614
0.7255
-5.41542
-4.49418
3.6915
2.96403
3.73912
-4.95274
-1.41649
-4.52256
-9.66457
-6.38259
-10.1464
10.3142
5.52385
10.2463
-11.5152
11.7124
6.06653
2.31605
5.83775
-4.88025
-3.82016
-5.30545
11.1609
-0.950601
-10.2103
-8.2451
-5.56107
8.20362
5.26893
8.17979
5.6659
8.28288
3.18573
7.97521
-8.45466
2.89359
-3.85262
-1.91279
-3.82942
3.74308
2.05568
3.79533
-4.14194
-2.50351
-4.14475
-4.19451
-2.62489
4.25155
2.35627
-4.29668
-3.69287
4.41822
2.32274
3.17713
-7.62666
3.65705
-7.19474
-6.62474
-2.67574
-6.53063
4.25911
2.55951
-6.81861
-2.46135
10.9422
-5.36576
9.23515
-7.12549
-4.57769
-7.18828
-6.76116
-1.61698
-6.58809
-8.74973
8.25361
-9.07961
8.37059
12.6619
-5.66419
-6.99771
-3.96903
-2.47169
3.92088
-0.491048
-3.7112
3.71792
0.0491802
3.83014
4.75212
4.26108
-3.88817
-1.93306
-3.82958
3.8272
2.05593
3.89442
6.76784
2.19716
6.7824
-6.40337
-2.61396
-6.53722
9.08215
-8.66557
2.9654
-2.96086
5.21546
2.58155
-5.01007
-2.6879
6.02561
-3.03384
-2.99177
-12.2237
10.5962
1.62746
-4.84591
-0.447047
0.0022405
-5.51491
-3.78986
5.40224
0.529019
11.1252
7.33537
-5.51354
5.76135
6.16442
6.22455
-0.169224
5.85173
-5.16808
5.2369
-2.24495
-2.99195
5.24915
-5.43737
-1.28807
-5.23211
3.94404
0.305549
1.89566
-1.58914
-2.06508
-0.52278
-1.9627
1.60863
1.00784
1.78713
0.966217
1.75455
-2.97918
0.602545
2.37664
-2.01297
-1.86607
-3.5351
-0.976706
4.51181
5.48066
2.05354
-5.39347
-0.190182
2.74041
-2.69334
-0.68998
-2.84512
2.15896
-2.84894
-3.50925
-1.88299
5.39224
-3.36874
-0.460841
3.31394
0.552059
-3.81808
-2.06062
3.77351
0.342814
-3.1316
6.21686
-3.08526
-5.06466
2.52882
3.55732
4.53904
-4.78963
2.44357
2.34606
-1.2323
3.55437
0.18474
3.30028
-6.29473
4.87824
5.4953
3.3308
-5.88219
1.35963
-4.93511
8.9104
-8.17762
-0.732784
3.88729
5.02311
7.23531
5.42659
-5.72079
12.9561
-2.18302
-5.9946
7.11812
-3.78732
5.11931
-8.90663
-10.5459
4.5513
-11.1976
11.5735
-0.375921
-2.92448
-8.59068
14.1221
-1.81391
-12.3082
8.43241
-6.38338
-3.77377
10.1571
-7.33398
7.59393
-3.67804
-3.91589
-9.21761
-4.27554
9.11159
2.6008
-9.36478
12.2584
-1.38956
5.50003
0.337717
5.36471
5.31702
-5.62857
0.311551
2.01696
-5.695
4.20483
-9.83341
-5.17627
9.86898
-4.69271
-7.85201
-7.27174
-0.580261
1.75598
10.5024
-7.42188
5.40748
2.0144
3.3186
0.57582
-3.37083
-0.458589
0.349566
4.48088
-4.83045
4.14489
4.22263
3.39894
1.08194
3.79098
2.12498
-3.82485
-0.319894
-4.09262
1.46773
-1.73635
-3.61171
5.07944
-4.03572
0.424006
-2.69234
-3.54726
6.2396
-4.60513
3.06075
3.15611
5.11668
-4.93678
1.38951
-2.43471
-2.50207
2.64621
-4.38255
1.93767
3.14177
4.26041
0.567537
5.07644
4.79254
-7.63594
0.441207
8.45659
-7.18545
2.01269
6.27019
-7.42017
0.148428
-6.3822
1.01479
-6.38055
-5.80382
5.20197
-6.81895
-3.70465
6.13391
0.648498
-6.23425
-0.353845
-5.9349
-2.81484
-6.37746
-3.08631
-5.9933
-8.80711
-1.60659
-7.20051
6.64702
-6.58773
-3.55868
7.32944
1.04115
-7.3577
7.32908
-7.42072
7.10696
0.0949483
3.62297
4.35603
1.88434
-2.39067
4.27501
-5.01786
7.21502
-8.45592
3.43805
3.92625
-6.54021
-4.52967
5.01636
4.06579
5.33386
9.01191
-10.554
1.54209
-10.9094
12.2463
-1.33689
-16.6951
5.78567
-7.68321
2.69767
0.267731
2.71368
0.668493
2.41197
-3.08046
-2.29237
-2.30151
-2.25204
-3.30462
5.55666
1.0942
-3.32294
2.22874
-3.4349
4.5291
-0.0801414
-3.2428
5.22009
-2.80812
5.48782
-3.51504
1.97278
3.21749
5.49484
-2.27735
4.23553
-1.65398
1.75699
-4.03434
-1.54763
-3.0025
5.05818
-3.23711
3.66111
-0.227734
3.88885
-4.01149
0.977644
-0.61255
3.61008
3.77212
4.15049
-3.06854
2.87563
-4.52961
-1.15872
-3.96207
-0.820304
-0.370341
-3.68169
4.05203
6.04742
-6.41776
-5.30624
9.6027
-4.29645
7.73096
-5.43449
-2.29647
-4.27923
-4.38634
3.89011
1.96162
9.69259
0.197807
-5.6323
-4.97027
-4.0078
3.20593
2.03097
-2.07558
3.70305
2.07334
-0.177687
0.594897
1.19224
1.9303
-1.3354
0.194178
1.73612
-1.39496
1.98168
0.758734
-2.06756
0.104856
-1.29356
3.45252
1.08308
-2.09092
0.755521
1.12082
-3.36576
4.66373
-2.35658
-2.30715
5.78454
1.17435
-3.53093
4.05776
-3.75221
2.2773
-3.254
-1.25363
-5.00584
-3.41484
-2.44761
4.67635
-3.10905
5.1626
1.1671
-4.97241
6.13952
-3.53473
1.65174
-2.96914
3.72787
-0.994369
-1.97477
2.75213
2.64011
-2.85191
0.00678774
-0.0997796
2.32124
-2.42102
-0.527698
-2.54067
-4.56666
4.90947
-2.11405
4.55762
2.16096
-1.91166
6.46928
1.8153
-3.72695
-3.24936
-3.7102
-1.3809
3.15814
-1.73072
-3.57474
-5.6466
3.98177
-0.681488
-6.35888
7.63352
-1.27463
-3.39485
-1.48339
5.37068
-7.45609
1.76109
-3.25125
4.38226
4.567
3.88552
-12.4349
0.126754
-6.91109
0.963414
-7.8745
5.98652
-3.39162
7.94292
-10.6056
7.04695
-9.56448
7.21014
-0.664365
5.97316
-5.66161
4.23719
-8.51273
-5.91193
6.49045
-4.1744
6.82817
-4.59319
11.4214
-5.98275
7.04769
4.37366
-1.55549
-5.63278
-6.70008
5.14459
0.34761
5.71232
4.95097
-2.82599
4.63107
2.25499
-4.6897
-2.12756
-6.56299
1.87329
-3.40688
-1.91844
3.79173
3.19824
3.77406
1.28966
-3.31547
7.0534
-7.63366
-2.36068
-3.44314
6.73025
-1.58566
4.22799
-7.67113
-2.15256
5.00103
-0.982841
-4.01819
0.663166
-4.36782
1.65109
-6.01891
5.16786
-5.52171
2.18073
-9.86394
-5.17697
-5.04495
-2.24874
-5.17198
-7.68523
5.43649
-1.89956
5.42953
-8.72573
7.74288
-3.52061
8.95709
-5.34938
-1.02808
5.7658
1.34117
10.2983
0.0838042
-4.61347
-1.78082
3.88571
-2.10489
1.42511
-3.59788
0.287822
2.46489
3.31965
-6.40893
-0.131287
-4.74476
-3.90413
7.96992
5.69857
11.746
1.19199
9.18572
-1.2158
10.3777
4.11805
4.34664
-3.01593
4.55802
1.0361
4.47415
-0.832897
2.80568
1.88078
1.86243
0.830905
2.30317
1.46895
3.28081
0.20035
-2.10116
4.66563
-8.67343
-0.966671
-8.0989
1.11161
5.75273
-4.64113
3.1305
-1.09953
1.02562
0.205768
-1.81919
1.61342
-2.78618
-1.99688
-0.260757
-1.60825
2.36377
1.84428
-2.10301
-0.683173
0.313228
-3.72807
2.94077
-2.93399
-0.293878
5.84564
-2.71302
0.291994
-1.06128
-2.24867
-2.77145
2.6666
6.19627
0.27301
3.111
5.18248
3.12186
0.295873
6.21297
-6.58889
-3.62044
-6.46214
-0.475614
4.89507
2.57709
7.9253
6.95075
5.36509
-2.30604
-9.9397
6.58576
-2.02775
5.24888
-1.23069
-4.78822
4.91681
2.29822
-5.5653
0.0435947
-4.74462
-6.77237
-0.611598
8.35448
-9.68666
8.65858
5.84374
1.35678
-4.36002
-0.684931
4.17549
0.171153
10.5489
-1.13832
-6.91118
8.0495
-4.61441
3.64774
0.901152
2.8019
2.51457
1.41504
-5.49614
-10.1373
-1.77867
-1.58709
-4.08582
0.425989
-2.27027
6.27843
-2.63069
3.98196
5.41882
6.44443
-2.21169
-4.20608
6.50814
-2.52618
3.91825
)
;

boundaryField
{
    wall-4
    {
        type            calculated;
        value           uniform 0;
    }
    velocity-inlet-5
    {
        type            calculated;
        value           uniform -3.75095;
    }
    velocity-inlet-6
    {
        type            calculated;
        value           uniform -5.62643;
    }
    pressure-outlet-7
    {
        type            calculated;
        value           nonuniform List<scalar> 8(6.03472 5.88834 6.52498 6.88901 6.79711 6.78994 6.76418 6.82505);
    }
    wall-8
    {
        type            calculated;
        value           uniform 0;
    }
    frontAndBackPlanes
    {
        type            empty;
    }
}


// ************************************************************************* //
