/*--------------------------------*- C++ -*----------------------------------*\
| =========                 |                                                 |
| \\      /  F ield         | OpenFOAM: The Open Source CFD Toolbox           |
|  \\    /   O peration     | Version:  2412                                  |
|   \\  /    A nd           | Website:  www.openfoam.com                      |
|    \\/     M anipulation  |                                                 |
\*---------------------------------------------------------------------------*/
FoamFile
{
    version     2.0;
    format      ascii;
    arch        "LSB;label=32;scalar=64";
    class       volVectorField;
    location    "19";
    object      U;
}
// * * * * * * * * * * * * * * * * * * * * * * * * * * * * * * * * * * * * * //

dimensions      [0 1 -1 0 0 0 0];

internalField   nonuniform List<vector> 
918
(
(0.985144 -0.000534592 0)
(0.00500359 2.96626 0)
(-0.0124631 1.59688 0)
(0.979694 0.00215573 0)
(-0.00399625 1.568 5.22284e-21)
(-0.00703122 2.94878 -1.88969e-18)
(0.856783 1.20365 7.29465e-19)
(0.436643 0.199228 -9.16839e-21)
(0.999908 -0.00032373 0)
(0.0434932 0.794405 0)
(-0.0255311 1.18014 0)
(0.779184 -0.00960252 0)
(0.0110854 2.93037 0)
(0.00163251 2.79463 0)
(-0.0179168 3.16893 1.07884e-18)
(-0.00431673 1.46898 -7.92242e-21)
(0.559857 0.0926247 5.76529e-19)
(0.194202 1.18153 6.40578e-19)
(0.962931 0.00507444 0)
(-0.000900761 1.34199 0)
(0.145351 0.255611 -4.90177e-19)
(1.00203 -0.00500453 0)
(1.00025 -0.00972625 0)
(0.975796 -0.00645704 0)
(0.693281 -0.0345658 0)
(0.0176403 2.63172 0)
(-0.0151307 2.91018 6.54827e-19)
(-0.0244471 1.6171 0)
(-0.0271428 1.74291 0)
(-0.0245706 1.6119 0)
(-0.00568348 1.83601 0)
(-0.00130302 1.59355 -4.13167e-21)
(-0.00453111 1.47763 0)
(-0.0206308 2.98758 -6.61698e-23)
(-0.0167059 3.00531 1.46895e-18)
(0.00210551 3.00022 0)
(0.869263 -0.008816 0)
(0.39162 0.927346 -2.45764e-20)
(0.840986 1.21882 -1.01642e-18)
(0.98908 1.05897 9.56443e-19)
(0.707251 1.31363 -1.69418e-19)
(0.702825 1.29727 9.48926e-19)
(0.465642 0.278021 8.94536e-21)
(0.457162 0.181463 0)
(1.16956 0.565604 0)
(0.437933 0.297551 4.2064e-20)
(0.398725 0.201591 -4.36486e-20)
(0.919514 -0.00756801 0)
(1.00034 7.11539e-05 0)
(0.999913 0.000310349 0)
(1.00344 -0.0077668 0)
(1.00094 -0.00106867 0)
(1.00018 -1.52876e-05 0)
(0.0124862 1.73543 -3.38573e-19)
(0.0535176 0.915005 0)
(0.0755063 0.868616 0)
(-0.00686371 0.861892 0)
(-0.00252835 0.776174 0)
(0.0321954 1.55123 0)
(-0.0376259 1.2774 0)
(-0.0454088 1.08983 0)
(-0.0218316 1.37002 0)
(-0.0139192 1.23978 0)
(0.85675 -0.0012825 0)
(0.872371 0.00952673 0)
(0.790511 -0.00432778 0)
(0.865872 0.0152989 0)
(0.763804 -0.0104707 0)
(0.0147045 3.00039 6.92154e-19)
(0.0115328 3.00784 0)
(0.00614543 3.00286 0)
(0.0135384 2.99731 7.72305e-24)
(0.00800488 2.95847 -1.02871e-18)
(0.014485 2.98211 0)
(0.0107641 2.90366 0)
(0.0250949 2.9305 1.39112e-24)
(0.00414632 2.8249 0)
(0.0313368 2.91554 0)
(-0.00659711 2.74382 0)
(0.311039 3.56883 0)
(-0.132513 3.65113 0)
(0.140923 3.25964 1.00402e-18)
(-0.0108226 2.9917 0)
(-0.0178195 1.81285 0)
(0.000325621 1.62238 7.81522e-21)
(-0.00341356 1.47733 -1.13063e-20)
(0.608797 0.152129 -1.98258e-19)
(0.553604 0.0515542 -1.94482e-19)
(0.591187 0.190278 -5.9928e-19)
(0.537521 0.120753 -3.99198e-19)
(0.224634 0.905311 0)
(0.281229 1.33701 -6.59147e-19)
(0.391756 1.29686 1.08656e-18)
(0.987576 0.00844072 0)
(0.942869 0.00600892 0)
(1.0003 0.000542634 0)
(1.00289 0.00926522 0)
(1.00306 0.00842771 -1.12386e-18)
(0.991982 0.00972388 8.48615e-19)
(-0.0138367 1.49814 0)
(-0.00274425 1.32782 0)
(-0.0335417 1.62147 0)
(-0.0238232 1.53436 0)
(-0.0043652 1.38007 0)
(0.217165 0.270918 1.51163e-19)
(0.26497 0.248979 0)
(0.993588 -0.00824516 0)
(0.954424 -0.00648915 0)
(0.836393 0.0224158 0)
(0.803367 0.0347836 0)
(0.743282 -0.0248855 0)
(1.00045 -0.0049138 0)
(0.747117 0.0509394 0)
(0.606861 -0.0144912 7.73144e-19)
(-0.035678 2.86596 3.40294e-19)
(0.0436156 2.90766 0)
(0.0567291 2.88308 0)
(-0.0054963 2.69639 0)
(-0.0131112 2.98533 6.02267e-19)
(-0.0182861 2.8956 0)
(-0.0153285 2.98816 -1.90446e-18)
(-0.0134656 2.92525 6.57477e-19)
(-0.0234473 1.81336 0)
(-0.0186078 1.81036 0)
(-0.00108387 1.61845 -1.04107e-22)
(-0.000873414 1.59132 0)
(-0.00590096 1.47583 0)
(0.933981 -0.00566205 0)
(0.852776 -0.00892085 0)
(0.863041 0.00887647 0)
(0.948063 -0.00679317 0)
(0.884405 -0.00763238 0)
(0.505265 1.12306 2.01777e-20)
(0.557403 1.17878 0)
(0.351342 0.865091 5.32696e-21)
(0.29463 0.727616 0)
(0.949394 1.09431 -2.75946e-19)
(1.06211 0.89467 5.63607e-19)
(0.39673 1.39489 0)
(0.558328 1.37419 0)
(0.558885 1.32544 0)
(0.0937277 0.137349 -1.30915e-19)
(0.503716 0.262508 0)
(0.488745 0.164024 1.14208e-19)
(1.03056 0.945847 0)
(1.09544 0.787453 0)
(1.12168 0.730191 -4.88556e-19)
(1.14932 0.624293 0)
(1.20101 0.405913 5.8714e-20)
(0.956824 -0.00861948 0)
(0.962018 -0.0100048 0)
(0.900972 -0.00805406 0)
(0.984247 -0.00910752 0)
(0.974618 -0.00941452 0)
(0.936811 -0.00620194 0)
(1.00016 0.00227599 0)
(1.00088 0.00138683 0)
(0.999907 0.000857247 0)
(-0.0329953 1.99461 1.94826e-19)
(0.103675 1.68979 0)
(-0.0257901 1.9721 9.09551e-20)
(0.0100904 1.74478 -1.15009e-19)
(0.11728 1.18294 -5.31252e-19)
(0.0693096 1.03266 0)
(0.129509 1.02138 0)
(-0.0392095 0.902339 0)
(-0.0423921 0.844275 0)
(0.0633447 1.72424 8.60736e-23)
(-0.0012286 1.54654 0)
(0.0362272 1.72232 2.20555e-20)
(-0.000315635 1.54811 1.91531e-20)
(-0.0581314 1.01437 0)
(-0.058145 1.15623 0)
(-0.0524368 0.96775 0)
(-0.0143957 1.4359 0)
(-0.00772743 1.27509 0)
(0.942841 0.0152397 0)
(0.879498 0.000662336 0)
(0.924001 0.00864303 0)
(0.845538 -0.00285037 0)
(0.80924 0.00424699 0)
(0.901443 0.0114754 0)
(0.886163 0.0066516 0)
(0.792519 -0.000372415 0)
(0.00597867 3.0649 -6.09833e-21)
(0.0164374 3.05801 0)
(0.0147416 2.96917 0)
(0.00857349 2.87636 0)
(0.928731 3.98847 0)
(1.24431 3.31722 1.01369e-18)
(0.0717416 3.08374 0)
(-0.0260848 2.91134 0)
(-0.0223386 1.80076 0)
(-0.023449 1.80772 0)
(-0.0205508 1.80296 0)
(-0.00990853 1.82401 4.6051e-21)
(-0.0163657 1.82206 0)
(-0.0137542 1.81988 0)
(-0.00425133 1.49786 -5.00593e-21)
(0.00100732 1.66969 6.23804e-21)
(0.00132381 1.64089 1.16009e-20)
(-0.00540991 1.47968 0)
(0.633034 0.120836 2.9209e-19)
(0.568227 0.0243681 -2.84223e-19)
(0.255936 1.51644 0)
(0.268908 0.660842 -2.17509e-19)
(0.20205 1.62846 -7.47269e-19)
(0.220381 1.17426 7.49697e-19)
(0.90439 0.00733203 0)
(0.968053 0.0107498 0)
(0.974972 0.0104674 0)
(0.924936 0.00669745 0)
(-0.0135083 1.47273 0)
(-0.013861 1.48804 0)
(-0.00561427 1.29963 0)
(0.396499 0.3056 3.89719e-19)
(0.33666 0.287361 -4.75733e-19)
(0.344198 0.223096 0)
(1.12264 0.0836809 -2.69042e-21)
(1.10816 0.0382316 0)
(1.03625 0.0374296 0)
(0.942503 0.00593891 0)
(0.656982 0.0919048 0)
(0.687569 0.0655905 -1.24473e-18)
(0.584245 0.0084569 4.7564e-19)
(0.00992757 2.98252 4.29546e-19)
(-0.0317862 2.86815 4.94337e-20)
(0.0037806 3.05017 -1.31652e-20)
(0.0199833 3.04354 4.73425e-19)
(-0.0150302 2.99655 2.18504e-20)
(-0.0129657 2.94942 -8.84769e-23)
(-0.0172731 3.01202 -4.14064e-19)
(0.0147439 3.02417 2.99226e-19)
(0.00725756 3.03668 -4.6768e-19)
(0.92369 0.00341998 0)
(0.93076 -0.00128352 0)
(0.840691 -0.00655176 0)
(0.957328 0.0122239 0)
(0.943751 0.0133525 0)
(0.883029 0.00802347 0)
(0.916672 0.0136692 0)
(0.926893 0.0145324 0)
(0.836689 0.00793105 0)
(0.714094 1.40925 3.1928e-19)
(0.750143 1.52117 0)
(0.222157 0.371061 2.78955e-20)
(0.176074 0.578033 2.23812e-19)
(0.262976 0.686481 -1.23265e-19)
(0.22511 0.572448 2.27782e-19)
(0.283812 0.685067 7.48803e-19)
(0.10705 0.173964 2.17862e-19)
(0.563762 0.221643 -4.12757e-19)
(0.532916 0.243515 1.06478e-19)
(0.513031 0.14613 2.16648e-19)
(1.18974 0.462619 2.87673e-19)
(1.20611 0.256781 3.01272e-19)
(-0.0173374 1.91979 2.75809e-20)
(-0.0245067 1.6704 0)
(0.987271 0.0273511 0)
(0.955635 0.0180363 0)
(0.903855 -0.00144085 0)
(0.0109718 3.0745 0)
(0.0199654 2.94419 8.14391e-19)
(0.0165415 2.95641 0)
(0.00615293 2.85072 -8.07697e-19)
(0.00618404 3.0919 1.93163e-19)
(0.00732432 3.08251 0)
(0.784031 1.82704 -2.36901e-19)
(1.25119 2.51256 6.50851e-19)
(0.766935 1.96907 -1.48754e-18)
(0.0210887 2.98431 -3.158e-19)
(0.0373828 3.00751 0)
(-0.0322078 2.88211 0)
(0.0205284 1.69416 5.48911e-21)
(0.00592398 1.69754 1.71934e-21)
(0.00609447 1.52486 -2.97738e-21)
(0.274969 1.3226 6.90022e-19)
(0.23196 0.441332 -4.73907e-19)
(0.00842247 1.94919 4.85219e-19)
(0.121436 1.85099 -6.17132e-19)
(0.177092 1.46879 9.7053e-20)
(0.00463873 3.11786 -1.08916e-18)
(0.0164941 3.11811 1.16659e-18)
(-0.00872083 2.98086 5.24788e-19)
(-0.00276097 2.9777 -4.66286e-19)
(-0.0216462 2.88234 -5.3448e-19)
(0.0088125 3.0986 -1.41515e-18)
(0.00206393 3.10668 1.38209e-18)
(0.21953 0.601437 0)
(0.159957 0.584139 -4.32342e-19)
(0.125987 0.198284 1.91075e-19)
(0.319198 0.810717 6.54517e-19)
(0.17097 0.219194 -1.00266e-18)
(1.20435 0.170496 -5.32634e-20)
(1.20617 0.308725 0)
(1.19238 0.118706 1.17673e-19)
(0.0394933 1.76165 1.31834e-21)
(-0.00768319 1.81938 0)
(0.00315909 1.59638 0)
(0.323379 1.20271 -2.52501e-19)
(0.349139 1.02098 -5.32441e-19)
(0.193235 0.314473 9.17158e-19)
(1.00583 -0.0110918 0)
(1.00761 -0.00765724 2.05619e-19)
(-0.0243934 1.8009 0)
(-0.0336169 1.80835 0)
(1.00216 0.00339411 1.58857e-21)
(1.00381 0.00943644 4.22276e-19)
(-0.00976991 1.82901 -6.2066e-21)
(-0.00643177 1.82814 0)
(0.0400337 3.18432 1.21512e-19)
(0.40037 3.50416 0)
(1.11258 0.644658 5.93935e-20)
(1.01264 0.0126741 -2.17344e-21)
(1.02144 -0.0106026 0)
(1.0017 1.91622e-05 -5.20939e-23)
(0.117125 1.13398 0)
(0.14305 2.65076 0)
(-0.174553 1.4955 0)
(-0.134883 2.21421 1.83322e-20)
(-0.078753 1.98705 5.21762e-20)
(1.00538 0.00985315 2.70209e-21)
(1.04695 0.0143197 0)
(1.07163 0.029289 0)
(-0.0247815 1.81065 0)
(-0.0144978 1.85363 0)
(-0.0278573 1.78303 0)
(0.302377 1.44045 -4.41086e-19)
(1.01111 -0.00957038 0)
(1.0095 -0.0154249 0)
(1.00233 0.000413669 2.59262e-19)
(1.00551 -0.00497195 -3.094e-19)
(1.00122 -0.00108485 0)
(-0.0282177 1.80474 0)
(-0.0257396 1.79839 0)
(-0.0259278 1.80232 0)
(-0.0284311 1.78305 0)
(-0.0285077 1.78498 0)
(-0.0291856 1.78558 0)
(1.03011 -0.0155627 0)
(1.02076 0.0178255 -8.47099e-22)
(0.785861 1.26736 5.17272e-19)
(1.00288 0.00022456 -2.62381e-19)
(1.00322 0.00565697 3.13316e-19)
(1.0013 0.00219314 0)
(1.01295 0.0104053 2.55016e-19)
(1.00815 0.00830671 -3.16584e-19)
(1.00864 0.0142515 0)
(-0.0133271 1.85279 0)
(-0.00957616 1.84038 7.79825e-21)
(-0.00708897 1.83964 -5.15632e-21)
(1.18676 0.252205 -4.83834e-20)
(1.12576 0.0887767 0)
(0.0542376 3.07825 -5.32141e-19)
(0.0687648 2.85107 -4.25636e-20)
(0.148559 3.19811 8.2832e-19)
(0.142644 3.22701 -7.29196e-21)
(0.141036 3.24394 0)
(0.021524 3.13856 1.1635e-19)
(0.0811649 3.16275 5.19336e-19)
(0.0740139 3.19001 -2.24666e-19)
(0.025332 3.1288 0)
(0.671272 0.327885 0)
(0.62002 0.370908 0)
(1.08577 0.671699 -2.3222e-19)
(1.08237 0.812085 -8.4628e-20)
(1.14507 0.56199 0)
(1.17587 0.506995 0)
(1.01573 0.0131268 -4.70941e-19)
(1.01406 0.0138814 -1.5465e-21)
(1.02506 -0.0101591 0)
(1.02285 -0.0119588 0)
(1.0066 0.00290234 0)
(1.01033 0.00351469 0)
(1.00498 0.00166121 0)
(1.00961 0.00559701 0)
(1.00828 0.00603354 0)
(1.00477 0.0049597 0)
(0.134871 1.13055 0)
(0.0406604 0.957893 0)
(0.209791 1.19488 0)
(0.160292 1.2257 0)
(0.143959 2.66428 0)
(0.19533 2.67737 -2.0974e-19)
(0.0596395 2.7539 0)
(0.00150802 2.72063 -1.9462e-20)
(-0.164549 2.59603 1.30227e-19)
(-0.141094 1.52386 0)
(-0.111839 1.56746 0)
(-0.202721 1.43685 0)
(-0.171993 1.32344 0)
(-0.352596 2.04142 6.05186e-20)
(-0.111392 2.05446 2.73689e-20)
(-0.124958 2.20345 1.29617e-20)
(-0.0779008 2.12238 0)
(-0.0743613 1.98508 -9.97032e-20)
(-0.0548469 1.95605 -2.48239e-20)
(-0.355055 2.02146 -6.17958e-20)
(-0.191461 2.00243 -3.58625e-20)
(-0.207674 2.11906 -1.69783e-20)
(1.01445 0.0205155 4.66931e-19)
(1.0129 0.00506035 4.18732e-21)
(1.00715 0.0208352 -4.86627e-19)
(0.992313 0.0135109 6.15557e-19)
(1.04702 0.0156705 0)
(1.0343 -0.00192693 0)
(1.06859 0.0388623 0)
(1.05388 0.0220757 0)
(1.05381 0.0148856 0)
(1.10904 0.0791223 0)
(1.08239 0.0476034 0)
(1.08683 0.0380471 0)
(-0.0151309 1.83196 -1.26187e-21)
(-0.0246914 1.82298 0)
(-0.0187957 1.82334 0)
(-0.0235893 1.87027 1.11808e-20)
(-0.0219345 1.87449 -3.52863e-22)
(-0.0359411 1.81436 9.17183e-21)
(-0.0323223 1.80825 -9.26886e-21)
(-0.0342317 1.79504 0)
(-0.0323669 1.79929 0)
(-0.0321399 1.79939 0)
(-0.0340796 1.77346 0)
(-0.0229976 1.74688 0)
(0.378529 1.47086 8.38833e-19)
(0.399615 1.47502 3.30579e-19)
(0.582968 2.41405 -1.51958e-19)
(0.404724 2.51268 4.37381e-19)
(0.353776 2.07383 -2.05137e-20)
(1.02096 -0.00803664 0)
(1.01514 -0.00974236 0)
(1.01517 -0.0157885 0)
(1.00726 -0.000983233 0)
(1.00466 -0.00157646 0)
(1.00744 -0.00471912 0)
(1.00952 -0.00401384 0)
(1.01356 -0.00433952 0)
(1.02267 0.0176935 4.49443e-19)
(1.01706 0.0168389 -5.74979e-19)
(1.0232 0.0216732 -4.58453e-19)
(1.01733 0.0216157 5.74982e-19)
(0.76092 1.31253 0)
(0.689676 1.37221 6.1285e-19)
(0.85924 1.20487 3.53447e-19)
(0.901364 1.16149 -4.69883e-19)
(1.14579 2.61298 -5.17903e-19)
(0.834854 0.112092 3.00994e-19)
(1.1252 0.0984113 0)
(1.17168 0.176877 4.39519e-20)
(1.15938 0.156598 1.97891e-21)
(0.97725 0.122832 0)
(0.150335 2.9678 1.36417e-19)
(0.127068 2.87398 -6.81956e-19)
(0.0397117 2.35337 4.94897e-19)
(0.105215 0.109158 -2.07587e-19)
(0.344744 3.43235 -4.37865e-19)
(0.199642 3.32309 0)
(0.240784 3.36841 5.70239e-19)
(0.257011 3.04166 -7.63854e-19)
(0.351132 3.20126 0)
(0.00662725 3.12078 2.7119e-20)
(0.0178316 3.12958 -3.44681e-19)
(0.0154598 3.12546 5.0732e-19)
(0.037768 3.14018 0)
(0.0364152 3.15181 0)
(1.21102 2.61638 0)
(0.505118 0.850656 -2.38649e-19)
(1.01507 0.992405 -1.94644e-19)
(0.953363 1.05092 0)
(0.795778 0.951098 4.95641e-20)
(1.0357 0.862435 3.09494e-20)
(0.406492 0.471854 -5.57492e-19)
(0.705817 0.336596 -2.29911e-20)
(0.690953 0.280888 2.2944e-19)
(0.626336 0.408501 1.83397e-20)
(0.564812 0.400643 -7.55444e-19)
(0.683999 0.356042 0)
(0.71947 0.418831 3.69288e-19)
(0.716462 0.415667 0)
(0.659125 0.382803 0)
(0.640423 0.3268 0)
(0.751957 0.589245 1.40656e-19)
(1.18594 0.268875 -5.46224e-20)
(1.18192 0.401877 0)
(1.19291 0.356788 0)
(0.762452 0.211474 3.46078e-19)
(0.809129 0.511021 -1.91186e-19)
(0.733031 0.490314 -3.1241e-19)
(0.912321 0.411717 -2.9561e-19)
(1.01969 0.0144763 3.09516e-19)
(1.0174 0.0139496 -3.17871e-19)
(1.01418 0.0160624 0)
(1.03162 -0.0135558 0)
(1.02827 -0.0108223 -2.8716e-19)
(1.02447 -0.0163873 2.84142e-19)
(1.02804 0.00696234 0)
(1.02546 0.015008 0)
(1.01137 0.00451998 0)
(1.01434 0.00891306 0)
(1.01545 0.00410448 0)
(1.0136 0.00202127 0)
(-0.0541668 1.02564 0)
(-0.102859 1.02595 0)
(0.311795 1.21182 4.79981e-19)
(0.293446 1.44284 2.60251e-19)
(0.208733 1.35846 5.80185e-19)
(0.21417 1.36975 -3.07847e-19)
(0.341692 1.32694 0)
(0.365017 1.66872 3.591e-19)
(0.341924 1.71046 0)
(0.362552 2.02662 2.97991e-20)
(0.35812 2.388 2.17007e-19)
(0.423217 1.46638 -3.18357e-19)
(0.314244 1.41603 1.92819e-19)
(0.359508 1.32691 1.59041e-19)
(0.329562 1.36378 3.13539e-19)
(0.287239 1.63267 -2.19658e-19)
(0.334047 1.6283 -2.03932e-19)
(-0.282973 2.47432 1.98671e-19)
(-0.158002 2.65779 0)
(-0.0515629 2.58531 -3.27352e-19)
(-0.143765 2.60469 0)
(-0.100736 2.72887 1.74948e-20)
(-0.12188 2.69709 0)
(-0.329716 1.67808 1.17067e-19)
(-0.420263 1.78233 0)
(-0.319808 1.51244 0)
(-0.300258 1.53345 -1.32038e-19)
(-0.196134 2.35528 -9.30632e-20)
(-0.161728 2.55962 -1.69018e-19)
(-0.138827 2.43863 -1.00092e-21)
(-0.207622 1.89482 1.15658e-20)
(-0.271105 1.88218 1.72217e-20)
(-0.0922377 1.61883 0)
(-0.0601845 1.6434 0)
(-0.44104 1.89377 -3.61921e-19)
(-0.364756 1.53913 -3.54553e-19)
(-0.402452 1.75922 4.42389e-19)
(-0.320598 1.81857 0)
(-0.042172 1.84806 -3.85138e-20)
(-0.0419205 1.868 1.5403e-20)
(-0.0516123 1.87575 -5.20655e-21)
(-0.16838 1.85569 -1.40157e-20)
(-0.0850565 1.91697 -9.26657e-21)
(-0.0997892 1.94189 5.80768e-20)
(1.02112 0.0210766 -3.03465e-19)
(1.02082 0.0167606 3.05221e-19)
(1.01587 0.0150999 0)
(1.00211 0.0463064 4.42477e-19)
(0.99337 0.0335315 -5.13856e-19)
(0.966575 0.0219572 5.93679e-19)
(1.00183 0.0797685 -5.78073e-20)
(1.03249 -0.0146919 0)
(1.03595 -0.000529809 2.56715e-19)
(1.02716 -0.0176514 -2.61735e-19)
(1.05133 0.0425645 -1.43141e-20)
(1.05232 0.0292352 1.27336e-19)
(1.04884 0.0492924 0)
(1.04021 0.0429629 -4.73378e-20)
(1.03505 0.0274304 0)
(1.03016 0.019674 0)
(1.03298 0.00967463 0)
(1.03005 0.0143711 0)
(1.04238 0.026033 9.77156e-20)
(1.04447 0.0193236 -2.21679e-19)
(1.04372 0.0309258 -9.98868e-20)
(1.04144 0.0301009 -1.1483e-19)
(1.04745 0.0555803 2.09069e-19)
(1.07319 0.0501103 0)
(1.07353 0.0943385 0)
(-0.0362933 1.84745 -1.24532e-20)
(-0.0262479 1.8273 -1.31603e-21)
(-0.0298292 1.83088 0)
(-0.0221001 1.84588 1.25013e-20)
(-0.0175547 1.83524 2.47009e-21)
(-0.0173456 1.84141 -2.31755e-21)
(-0.0493111 1.94264 1.87393e-20)
(-0.0583102 1.89298 -1.96323e-21)
(-0.0700241 1.9037 1.10228e-20)
(-0.0359838 1.90502 -1.11946e-20)
(-0.0372027 1.91225 -2.36227e-21)
(-0.0432739 1.80464 4.70319e-22)
(-0.0452162 1.81798 1.68828e-20)
(0.398707 1.41048 -4.12853e-19)
(0.357826 1.40191 -3.78304e-19)
(0.646777 1.41243 -5.90681e-19)
(0.519998 1.47227 -3.18591e-19)
(0.557472 1.44791 0)
(0.584323 2.38629 1.30339e-19)
(0.652697 2.37367 2.28197e-19)
(0.421003 2.47793 8.77393e-20)
(0.425785 2.54686 -1.53292e-19)
(0.531352 2.51209 2.90489e-19)
(0.537691 2.4254 0)
(0.510092 2.45848 -3.74977e-19)
(0.276725 2.56888 6.3927e-19)
(0.383519 2.51662 -7.20533e-20)
(0.301092 2.61981 -1.0004e-18)
(0.919125 2.37708 2.0874e-19)
(0.821985 2.36267 0)
(1.01082 0.000262867 1.0383e-20)
(1.01614 -0.00520458 -8.60587e-21)
(1.01681 -0.00420245 -1.52604e-19)
(1.01525 -0.000317445 1.53797e-19)
(1.01242 0.000928514 0)
(0.628082 1.25468 0)
(0.628956 1.16684 0)
(0.730918 1.08612 0)
(0.620035 1.12976 0)
(1.17584 2.62974 5.84327e-20)
(1.0609 2.3606 0)
(0.84884 2.22934 -1.4245e-21)
(0.833357 2.49093 0)
(0.927632 2.57073 1.03564e-20)
(0.965447 2.51841 0)
(0.840863 0.145023 0)
(0.813075 0.15032 8.61069e-20)
(0.925822 0.127773 4.42556e-19)
(0.864978 0.118687 -1.77492e-19)
(0.855944 0.0691988 -5.3508e-19)
(1.0284 0.209633 -2.66821e-19)
(0.953455 0.277152 -1.58198e-20)
(0.891608 0.273768 4.04863e-19)
(0.964143 0.197285 3.02875e-19)
(0.933071 0.158917 -5.57862e-19)
(0.909703 0.174038 7.2113e-20)
(0.93243 0.235003 -1.42368e-19)
(0.910104 0.192398 0)
(0.968876 0.159805 -2.67437e-19)
(1.00431 0.160998 0)
(1.0035 0.186924 0)
(1.06794 0.106743 8.95844e-20)
(1.02772 0.150724 -1.33931e-20)
(1.02229 0.213384 -1.37879e-19)
(1.05768 0.18539 0)
(1.02008 0.0262606 2.33412e-19)
(1.03562 0.0456111 2.78132e-19)
(1.03243 0.0318201 -2.31621e-19)
(1.03099 0.0492837 -1.86903e-19)
(1.01154 0.0517282 -3.1159e-19)
(0.976104 0.123475 0)
(0.982576 0.0755909 0)
(0.970406 0.044995 -2.14064e-19)
(0.936275 0.0579371 8.983e-20)
(1.01553 0.0801734 2.64327e-19)
(1.03253 0.108513 -2.72009e-19)
(1.03562 0.130852 2.47254e-19)
(0.998342 0.123602 0)
(1.04248 0.0962865 0)
(1.02942 0.0790043 -1.13234e-19)
(1.02768 0.0796453 -2.12207e-19)
(0.562988 1.07406 -8.32308e-20)
(0.607672 1.44035 1.82779e-19)
(1.15085 2.76123 9.06861e-20)
(1.21866 3.09832 -6.91645e-20)
(1.24112 2.73247 5.36875e-19)
(1.27403 2.7169 -3.28675e-19)
(1.19958 2.34869 -8.16734e-21)
(1.20427 3.00083 1.86009e-19)
(1.22229 2.96504 -2.01106e-19)
(1.21128 3.25201 -2.65902e-19)
(1.37456 2.98175 3.68275e-19)
(1.36778 2.89854 0)
(0.507678 0.856398 -1.35593e-20)
(0.162207 1.29294 3.75279e-19)
(0.523663 0.543375 3.67594e-19)
(0.35591 0.313384 4.0047e-19)
(0.568861 0.431721 4.22656e-19)
(0.561799 0.497845 -6.73821e-19)
(0.556554 0.521481 5.53244e-19)
(0.525368 0.468989 -2.20816e-19)
(0.485775 0.409129 5.07027e-19)
(0.765353 0.269166 5.93027e-19)
(0.733675 0.297083 0)
(0.722156 0.253108 1.01677e-20)
(0.727418 0.508215 1.96546e-19)
(0.704689 0.469017 -7.22819e-19)
(0.629339 0.494873 1.96488e-20)
(0.646265 0.464728 0)
(0.629069 0.73673 1.57025e-19)
(0.777286 0.755822 6.64902e-20)
(0.709986 0.843064 -8.60376e-20)
(0.825574 0.790449 -2.24214e-20)
(0.864562 0.831451 1.18265e-20)
(0.873232 0.834703 -1.21093e-20)
(0.792774 0.621318 -2.39574e-19)
(0.871054 0.684148 2.08493e-20)
(0.934396 0.696387 0)
(0.92202 0.669761 -2.29486e-20)
(0.980377 0.313237 6.73595e-20)
(1.08918 0.27638 1.6113e-20)
(1.0141 0.24643 1.08962e-19)
(0.966043 0.347879 -1.52682e-19)
(1.01281 0.404442 0)
(1.05172 0.394845 0)
(0.885457 0.351039 5.09774e-21)
(0.817662 0.28918 0)
(0.838144 0.277454 2.07156e-19)
(0.877736 0.283631 -6.93929e-21)
(0.905858 0.412635 8.08361e-19)
(0.862127 0.463846 2.06166e-19)
(0.872327 0.433107 -2.5901e-19)
(0.808694 0.418355 -2.76979e-19)
(0.79584 0.414257 1.88068e-19)
(0.770674 0.403939 -1.85042e-19)
(1.02732 -0.00592757 2.41936e-19)
(1.01971 -0.00195515 0)
(1.01822 -0.00084082 1.63863e-19)
(1.02288 -0.00218174 -2.59945e-21)
(1.02207 0.00197894 1.77948e-19)
(1.02096 0.0102883 -3.73676e-19)
(1.02239 0.00974892 0)
(1.02133 0.0106557 -7.86988e-20)
(1.01665 0.00688085 1.97639e-19)
(1.01687 0.0101082 -9.94518e-20)
(1.01741 0.00921543 7.25809e-20)
(-0.226062 1.28561 0)
(-0.326544 1.45965 0)
(-0.165844 1.1418 0)
(-0.152869 1.13884 0)
(-0.0128289 1.35802 -1.21648e-18)
(0.17993 1.18126 4.20955e-19)
(0.223484 1.68312 2.96749e-19)
(0.251509 1.28302 -2.11363e-19)
(-0.332569 1.53029 5.27463e-19)
(-0.323958 1.52337 -4.04911e-19)
(-0.138631 1.25968 9.86345e-20)
(-0.159289 1.26997 -7.64806e-19)
(-0.217448 1.28311 7.5148e-20)
(-0.308722 1.4001 -5.98523e-20)
(0.00663866 2.59562 3.50029e-19)
(0.119574 2.61282 0)
(0.240258 2.25652 -4.07203e-20)
(0.236183 1.83548 -1.70747e-19)
(0.340075 2.09236 2.65866e-20)
(0.258203 2.45694 0)
(0.277871 2.4155 -2.01354e-19)
(0.373991 2.39639 1.33041e-19)
(0.307089 2.07289 1.18893e-19)
(0.238468 2.28949 2.46743e-20)
(0.162611 2.44199 0)
(-0.403728 2.16729 3.76727e-19)
(-0.338653 2.27324 1.31571e-19)
(-0.397916 2.16533 0)
(-0.308675 2.43421 6.77418e-21)
(-0.3574 2.39307 -1.91697e-19)
(-0.232014 1.65744 -4.16329e-21)
(-0.158921 1.68132 7.31357e-20)
(-0.161356 1.72654 -2.39929e-20)
(-0.246024 1.72288 -2.15822e-20)
(-0.303342 1.69176 0)
(-0.135749 1.72969 0)
(-0.0436482 1.74134 1.05682e-20)
(-0.0750881 1.76158 -2.82267e-21)
(-0.0971997 1.74271 0)
(-0.0588772 1.69107 6.50051e-21)
(-0.0308804 1.7023 -1.49799e-20)
(1.03501 0.00305907 0)
(1.04281 0.00651662 -2.44335e-20)
(1.04673 0.0172808 -1.76131e-19)
(1.04618 0.0180955 0)
(1.04634 0.0185492 0)
(1.04546 0.00583502 -6.33063e-21)
(1.03977 0.00437834 2.93523e-19)
(1.04153 0.0118422 3.52459e-19)
(1.03151 0.0165344 0)
(1.03032 0.0149734 0)
(1.04231 0.0190802 1.77837e-19)
(1.03261 0.0147555 0)
(1.03153 0.0138983 0)
(-0.0845828 1.84762 0)
(-0.0578525 1.8145 2.58513e-21)
(-0.0667152 1.8397 8.63337e-21)
(-0.0568574 1.76877 0)
(-0.070189 1.80476 7.02152e-21)
(-0.0543518 1.79628 -6.27162e-21)
(-0.0525363 1.78787 0)
(0.36828 1.72055 0)
(0.340346 1.33341 6.00682e-19)
(0.286691 1.38213 0)
(0.425428 1.28473 -4.28319e-19)
(0.489121 1.42708 0)
(0.43564 1.40022 3.83421e-19)
(1.02711 2.70419 -4.15437e-21)
(0.946155 2.41169 -2.77471e-19)
(0.869987 2.14679 3.63555e-19)
(0.846912 2.35879 1.35665e-19)
(0.847619 2.52928 0)
(0.909175 2.51822 0)
(0.878416 2.37657 0)
(0.91562 2.32697 -4.77299e-19)
(0.681195 2.50967 -2.48254e-20)
(0.811394 2.50098 -1.36714e-20)
(0.819523 2.47296 1.0467e-20)
(0.67793 2.35702 0)
(0.786142 2.36078 0)
(0.746059 2.36428 -2.34907e-19)
(0.764288 2.51487 0)
(0.575435 1.08564 0)
(0.468611 0.924282 -1.19043e-20)
(0.515215 0.955 -1.99972e-21)
(0.499081 1.04989 0)
(0.498458 1.00558 2.12249e-20)
(0.733197 0.869264 1.00174e-20)
(0.757175 1.00201 0)
(0.72894 0.960639 -5.55652e-20)
(0.60146 1.02647 0)
(0.616427 0.935856 0)
(1.15626 2.77673 4.30523e-20)
(1.13363 2.84288 1.11686e-19)
(0.928917 2.36995 -2.61702e-19)
(0.894953 2.3429 2.58653e-20)
(1.11984 2.74626 0)
(1.07231 2.71581 -3.53979e-20)
(1.07473 2.48686 -8.52046e-20)
(0.968554 2.21817 -2.96321e-20)
(0.499647 1.36394 0)
(0.498723 1.06705 7.33702e-20)
(0.553743 1.14582 0)
(0.858942 0.210831 0)
(0.821265 0.16278 0)
(0.778822 0.155657 0)
(0.845373 0.218883 -3.25078e-19)
(0.792774 0.219023 2.01696e-19)
(0.940606 0.0527988 -1.8515e-19)
(0.948219 0.100709 0)
(0.924236 0.103883 8.34199e-20)
(0.888445 0.0800256 3.41374e-19)
(0.882831 0.0494015 -2.10241e-19)
(1.1636 3.37781 -9.78921e-19)
(1.20836 3.29754 0)
(1.16487 3.40394 -1.92964e-18)
(0.652252 3.56453 1.65611e-18)
(0.879269 3.13043 3.82768e-19)
(0.494123 0.876415 2.22375e-19)
(0.422169 0.861718 0)
(0.354427 0.564095 -8.44694e-20)
(0.425107 0.698976 -3.86953e-19)
(0.52475 0.541124 -1.15781e-19)
(0.508851 0.565111 1.30969e-19)
(0.651292 0.543739 2.78304e-19)
(0.677372 0.539531 0)
(0.613542 0.638298 0)
(0.577677 0.57117 0)
(0.927334 0.577152 -4.49403e-20)
(0.859804 0.514335 -1.99635e-19)
(0.880679 0.546592 1.00272e-19)
(0.921501 0.48673 -1.46296e-19)
(1.01145 0.470122 0)
(1.02894 0.550357 -9.75583e-21)
(0.830419 0.378186 -4.14027e-19)
(0.82915 0.363563 6.32301e-19)
(0.783963 0.376553 3.25847e-19)
(0.772595 0.349012 -3.6521e-19)
(0.820499 0.310741 -2.73854e-19)
(0.780738 0.307223 3.35923e-19)
(1.0276 0.00227158 -1.88387e-19)
(1.02892 0.000689651 3.84871e-19)
(1.02816 -0.00671276 2.2977e-19)
(1.03208 -0.00877732 -2.83844e-19)
(1.03685 -0.00140655 0)
(1.03488 0.000537503 -4.61726e-19)
(-0.254519 1.99215 -1.22209e-19)
(-0.243902 1.79956 0)
(0.0121423 1.85888 -9.79642e-19)
(0.107759 1.84596 8.90912e-19)
(0.15116 1.67067 -5.51853e-19)
(-0.0223032 1.68814 0)
(-0.148794 1.84876 0)
(-0.131068 1.77259 -2.05954e-21)
(-0.0964466 1.77495 1.86024e-21)
(-0.0855246 1.80091 4.92321e-21)
(-0.0995187 1.85084 -1.0625e-20)
(-0.112862 1.84998 -2.44208e-20)
(0.503749 1.37748 4.12142e-19)
(0.491123 1.39021 4.79182e-19)
(0.441083 1.28131 3.97859e-19)
(0.413716 1.30058 -2.6209e-20)
(0.617219 1.29573 0)
(0.551694 1.37412 5.27808e-19)
(0.565935 1.35931 -5.10308e-19)
(0.454992 1.26145 -3.92328e-19)
(0.503215 1.21532 0)
(0.559001 1.18392 0)
(0.632082 2.46021 3.65643e-20)
(0.671453 2.4773 5.6259e-19)
(0.706223 2.49374 -3.84464e-19)
(0.604392 2.47805 -1.26699e-19)
(0.549477 2.56973 1.22452e-19)
(0.52588 2.53926 -3.4554e-19)
(0.959168 2.36284 -1.97973e-19)
(1.00034 2.38671 0)
(0.891264 2.13024 -2.65343e-19)
(1.04139 2.69691 0)
(1.04017 2.68325 0)
(0.62297 2.30306 2.47595e-19)
(1.04078 3.18029 4.80256e-19)
(0.913313 3.05038 -4.34308e-19)
(0.295827 0.976778 0)
(0.347612 0.847378 -1.52046e-19)
(0.490353 0.789665 -5.19054e-19)
(0.412547 2.05309 0)
(0.474769 2.79817 -2.66406e-19)
(0.437962 2.56364 0)
(0.639372 0.683022 -3.25885e-19)
(0.712208 0.660092 4.22229e-19)
(0.742409 0.604954 2.95214e-19)
(0.631188 0.646485 4.83143e-20)
(0.697183 0.593803 -1.97654e-19)
(1.00003 2.78746 -3.65068e-19)
(1.03269 2.84414 2.74638e-19)
(0.652549 2.20229 4.41993e-20)
(0.598658 1.74597 -6.35236e-20)
(0.695684 1.93468 9.38722e-20)
(0.982345 2.46951 -7.11633e-20)
(0.988373 2.47206 -1.47285e-19)
(0.671676 1.88903 -4.27875e-21)
(0.445121 1.35405 -9.38303e-20)
)
;

boundaryField
{
    wall-4
    {
        type            noSlip;
    }
    velocity-inlet-5
    {
        type            fixedValue;
        value           uniform (1 0 0);
    }
    velocity-inlet-6
    {
        type            fixedValue;
        value           uniform (0 3 0);
    }
    pressure-outlet-7
    {
        type            zeroGradient;
    }
    wall-8
    {
        type            noSlip;
    }
    frontAndBackPlanes
    {
        type            empty;
    }
}


// ************************************************************************* //
