/*--------------------------------*- C++ -*----------------------------------*\
| =========                 |                                                 |
| \\      /  F ield         | OpenFOAM: The Open Source CFD Toolbox           |
|  \\    /   O peration     | Version:  2412                                  |
|   \\  /    A nd           | Website:  www.openfoam.com                      |
|    \\/     M anipulation  |                                                 |
\*---------------------------------------------------------------------------*/
FoamFile
{
    version     2.0;
    format      ascii;
    arch        "LSB;label=32;scalar=64";
    class       volScalarField;
    location    "36";
    object      p;
}
// * * * * * * * * * * * * * * * * * * * * * * * * * * * * * * * * * * * * * //

dimensions      [0 2 -2 0 0 0 0];

internalField   nonuniform List<scalar> 
918
(
0.635732
1.28857
0.00540481
0.635062
0.0131608
1.25561
-0.421846
0.801258
0.615875
-0.0127078
0.0470033
0.610943
1.1162
0.881815
-1.04842
0.086531
0.752016
-0.301351
0.614888
0.0472271
0.836876
0.622463
0.625496
0.616083
0.678426
0.862839
0.996887
0.0187275
-0.00775942
-0.00331378
0.0559174
0.0437828
0.0485333
1.13926
1.19033
1.21301
0.584214
0.409649
-0.282109
-0.351907
-0.344335
-0.468593
0.793145
0.795227
-0.0920758
0.802667
0.812243
0.60308
0.615237
0.616123
0.617221
0.616169
0.617564
0.491724
-0.0178109
-0.0505194
0.00734025
0.0188692
0.145629
0.050372
0.0489071
0.049497
0.0547791
0.535198
0.606803
0.603997
0.616021
0.624296
1.22812
1.20005
1.22618
1.13982
1.15633
1.09419
1.06675
0.902941
0.924419
0.86624
0.854722
-1.48653
-2.44963
-0.452141
-0.197757
-0.00596946
0.0827662
0.0965335
0.743045
0.741689
0.753437
0.765636
1.16204
-0.296541
-0.418672
0.615011
0.613807
0.622204
0.622899
0.618912
0.618007
0.0532668
0.058182
0.0289285
0.0439416
0.0431728
0.826188
0.824521
0.616626
0.613646
0.631597
0.652347
0.644227
0.367472
0.682414
0.694727
0.684317
0.851863
0.84667
0.855307
0.970464
0.93319
1.03417
1.05751
-0.00404517
-0.003918
0.0660363
0.0611963
0.0750513
0.580161
0.572921
0.599048
0.58757
0.589988
0.32534
0.190364
0.495232
0.520433
-0.193211
-0.254967
-0.35551
-0.375017
-0.489908
0.684879
0.783706
0.78331
-0.112451
-0.0343909
-0.168326
0.0385597
-0.0212922
0.593495
0.600401
0.595459
0.610838
0.605344
0.607291
0.619465
0.616539
0.618101
0.555175
0.679367
0.417959
0.383511
-0.161818
-0.0700551
-0.164026
0.0308387
0.0357432
0.158453
0.186177
0.136021
0.123342
0.0421676
0.0491918
0.0463415
0.0614398
0.0603488
0.52839
0.517868
0.54746
0.554758
0.597145
0.598249
0.601452
0.600012
1.01762
1.03998
1.04743
1.02123
-3.4515
-6.25575
0.131825
0.271089
-0.0126581
0.00333766
-0.0104158
0.0472721
0.0117666
0.00905763
0.0977711
0.0966383
0.0944357
0.0971379
0.727764
0.726996
1.07983
1.07878
1.0626
1.01155
0.603078
0.605203
0.610779
0.606617
0.0597111
0.0597791
0.0633288
0.812659
0.820162
0.819122
0.330769
0.244583
0.416252
0.443776
0.714149
0.698924
0.711714
0.745935
0.781572
1.06493
1.0831
1.08143
1.08976
1.13384
1.15027
1.11552
0.560318
0.569895
0.56506
0.602239
0.599941
0.600881
0.5964
0.597858
0.595645
0.0382482
-0.345445
0.573418
0.590639
0.56922
0.57639
0.763769
0.838846
0.765652
0.775175
0.773916
0.104067
0.047483
0.342014
0.307756
0.470658
0.505509
0.485429
0.988707
0.949232
0.999197
0.972739
0.934073
0.960097
-0.297076
-1.81135
-0.922019
0.626354
0.437566
0.526086
0.110309
0.0997861
0.105787
1.07335
1.15228
0.735902
0.902554
0.911894
0.820399
0.851746
0.906093
0.830312
0.865924
0.902134
0.884366
0.641086
0.586515
0.596461
0.907775
0.963146
0.218564
0.164014
0.119664
0.205529
0.259568
0.233782
1.11678
1.01934
1.09079
0.613395
0.61409
0.00874041
0.039725
0.618227
0.618277
0.0482295
0.0781992
0.508673
-0.758375
0.207654
0.606711
0.596951
0.613886
0.00591244
0.4491
0.0465649
0.146512
0.100191
0.608577
0.545519
0.506473
0.0628706
0.0685753
0.0526922
-0.123976
0.611067
0.609377
0.613346
0.61433
0.614988
0.0538168
0.031695
0.0215166
0.0509446
0.0475398
0.0456474
0.578598
0.595848
-0.077932
0.613468
0.615595
0.615408
0.608573
0.614271
0.612471
0.0745932
0.0798716
0.0673779
0.315209
0.436644
0.755774
0.850663
0.721817
0.494732
0.255665
0.655361
0.721136
0.62337
0.781857
0.776631
0.795575
0.271048
0.123817
0.279299
0.221004
0.604578
0.603223
0.595192
0.592297
0.608731
0.606839
0.611394
0.608352
0.611339
0.612744
0.0433277
0.021422
0.00810523
-0.0547323
0.405344
0.666449
0.343428
0.374803
0.234827
0.054966
0.0544617
0.0468793
0.0445986
0.0954644
0.0846936
0.140746
0.144974
0.120881
0.100319
0.0888163
0.0836906
0.078393
0.602204
0.600657
0.606932
0.615623
0.554844
0.558624
0.524916
0.544615
0.530782
0.471475
0.505919
0.481552
0.0579458
0.0695752
0.0422841
0.0742699
0.0836564
0.0697491
0.0663897
0.0577068
0.0590783
0.0582955
0.0634359
0.0637178
-0.0823942
-0.195069
1.06713
1.00358
0.209738
0.600257
0.60668
0.603464
0.60827
0.611384
0.612225
0.609983
0.606566
0.5964
0.598174
0.594611
0.595304
-0.0161031
-0.153108
0.0208918
-0.0473224
0.219468
0.70726
0.44926
0.389188
0.383637
0.60575
1.00742
0.802424
0.796252
0.818446
-0.262591
0.134283
-0.195534
0.423715
0.245355
0.754089
0.80452
0.826987
0.773928
0.725396
-0.0319643
0.62876
0.0316783
0.0774443
0.271175
0.16177
0.797226
0.759945
0.765729
0.78361
0.803007
0.765508
0.746067
0.741616
0.779229
0.782769
0.581838
0.348173
0.303203
0.26399
0.743112
0.622412
0.679678
0.591774
0.599512
0.602299
0.600876
0.583274
0.590611
0.586322
0.592128
0.595382
0.604482
0.604834
0.600232
0.602424
0.0421007
0.0410762
0.0587267
-0.0484684
-0.0374473
-0.0973353
0.0202148
0.159681
0.122546
0.317986
0.424063
0.137084
0.0209598
0.0501143
0.0837673
0.262907
0.287449
0.163945
0.254559
0.238991
0.225396
0.328921
0.336154
0.0719465
0.0633406
0.0638429
0.062589
0.116831
0.184751
0.197073
0.0961803
0.0878274
0.0569911
0.0603822
0.06906
0.066891
0.0682261
0.105536
0.0283145
0.0735316
0.0951216
0.100173
0.0941478
0.08865
0.595264
0.597228
0.59701
0.604834
0.621486
0.636917
0.596095
0.576599
0.567533
0.570515
0.54412
0.554042
0.550011
0.563112
0.583397
0.592253
0.590342
0.592899
0.576212
0.577605
0.564724
0.568592
0.544617
0.526362
0.514776
0.0598271
0.062117
0.0782177
0.0446807
0.074174
0.0817266
0.100053
0.111651
0.0954974
0.0912586
0.0907843
0.0755648
0.0798283
0.0103704
0.0890959
-0.0983853
-0.130485
-0.199587
0.971188
1.09146
0.895403
0.671433
0.68488
0.923731
1.00956
0.633514
0.818149
0.841439
0.657495
0.923629
0.605086
0.604679
0.602274
0.601764
0.603002
0.0730605
0.174161
0.182795
0.237165
0.351473
0.46459
0.390136
0.267101
0.400146
0.404427
0.702595
0.717996
0.666773
0.689999
0.687702
0.515307
0.593778
0.648529
0.60104
0.647674
0.670261
0.630804
0.661427
0.606987
0.563038
0.561125
0.508885
0.529967
0.508055
0.489859
0.594721
0.572516
0.582782
0.573871
0.593219
0.618391
0.61425
0.643442
0.654449
0.577784
0.536938
0.546732
0.575511
0.536166
0.549798
0.565502
0.302481
0.201702
0.286191
-0.00555294
0.0753558
0.0601969
0.013121
0.0586096
0.344523
-0.353693
-0.326462
-0.959205
0.568064
1.03806
0.750529
0.723115
0.798789
0.777584
0.780519
0.803508
0.81029
0.732662
0.751085
0.754355
0.711909
0.735164
0.758443
0.755876
0.60248
0.476193
0.468013
0.426968
0.301009
0.335135
0.537519
0.460115
0.38613
0.389103
0.551814
0.440147
0.506492
0.54516
0.476795
0.431895
0.636024
0.702236
0.692278
0.667192
0.583744
0.597373
0.622416
0.658394
0.685494
0.717683
0.591926
0.597727
0.599003
0.596463
0.5937
0.596614
0.596716
0.599231
0.600074
0.602988
0.601975
0.0512344
0.0629144
0.051585
0.0433696
0.0679293
0.0632154
0.108951
0.0960785
0.0825736
0.0891296
0.0620177
0.0587881
0.0643003
0.0732281
0.182425
0.197121
0.183677
0.143576
0.330214
0.462499
0.532342
0.409174
0.302868
0.327915
0.350763
0.0776057
0.106922
0.0923302
0.132306
0.122965
0.0679864
0.0616897
0.0644732
0.0694307
0.0820346
0.0640078
0.0721232
0.0808763
0.0698046
0.0623503
0.0601211
0.578701
0.572259
0.573403
0.567647
0.566661
0.580106
0.584473
0.586231
0.591565
0.593529
0.584135
0.58953
0.593074
0.096734
0.077905
0.0733402
0.0821223
0.0824865
0.0837565
0.081307
0.201971
0.128969
0.134676
0.0895509
-0.0365273
0.0202315
0.564893
0.562261
0.559467
0.793929
0.644981
0.563871
0.659775
0.766173
0.351389
0.549627
0.383122
0.963201
0.856342
1.00208
0.619442
0.316141
0.470538
0.520974
0.330061
0.402396
0.407759
0.296871
0.328504
0.360304
0.460958
0.338934
0.313316
0.0717616
0.26011
0.376149
0.35728
0.484718
0.547095
0.336702
0.256157
0.211591
0.694618
0.713814
0.7336
0.703761
0.728261
0.65398
0.644087
0.662055
0.669932
0.665534
-0.687662
-0.395846
-1.33955
-0.654819
-0.205523
0.597398
0.560996
0.840147
0.727563
0.79182
0.777033
0.736538
0.70288
0.714744
0.747148
0.445026
0.556066
0.530149
0.536287
0.437682
0.370845
0.670984
0.665096
0.701066
0.725158
0.692709
0.725799
0.589673
0.589291
0.588981
0.585411
0.583765
0.585914
0.145853
0.116282
0.14943
0.131955
0.109357
0.0976608
0.0924682
0.0859185
0.0807527
0.0799163
0.0898816
0.0892312
0.242988
0.184956
0.107808
0.138782
0.0771772
0.0109643
-0.00755062
0.0930792
0.185799
0.175867
0.482033
0.732886
0.554262
0.722491
0.562365
0.617834
0.549645
0.54107
0.568856
0.454715
0.534794
0.296773
-0.205813
-0.114701
0.854847
0.873401
0.65471
0.468667
0.240024
0.42908
0.628642
0.564535
0.602971
0.671946
0.664125
0.083524
0.150903
0.409415
0.637301
0.306762
0.298559
0.293462
0.467307
0.392283
)
;

boundaryField
{
    wall-4
    {
        type            zeroGradient;
    }
    velocity-inlet-5
    {
        type            zeroGradient;
    }
    velocity-inlet-6
    {
        type            zeroGradient;
    }
    pressure-outlet-7
    {
        type            fixedValue;
        value           uniform 0;
    }
    wall-8
    {
        type            zeroGradient;
    }
    frontAndBackPlanes
    {
        type            empty;
    }
}


// ************************************************************************* //
