/*--------------------------------*- C++ -*----------------------------------*\
| =========                 |                                                 |
| \\      /  F ield         | OpenFOAM: The Open Source CFD Toolbox           |
|  \\    /   O peration     | Version:  2412                                  |
|   \\  /    A nd           | Website:  www.openfoam.com                      |
|    \\/     M anipulation  |                                                 |
\*---------------------------------------------------------------------------*/
FoamFile
{
    version     2.0;
    format      ascii;
    arch        "LSB;label=32;scalar=64";
    class       surfaceScalarField;
    location    "36";
    object      phi;
}
// * * * * * * * * * * * * * * * * * * * * * * * * * * * * * * * * * * * * * //

dimensions      [0 3 -1 0 0 0 0];

oriented        oriented;

internalField   nonuniform List<scalar> 
1300
(
3.75095
5.62643
-3.04907
3.75095
-6.60064
5.62643
-4.43462
4.43462
-0.938109
0.938109
1.87642
1.87453
-2.93051
2.93051
-2.34876
2.34876
-2.55695
2.55695
-5.24641
5.24641
-5.06889
5.06889
4.66717
-4.66717
-6.04885
6.04885
-1.29462
1.29462
-3.80466
3.80466
3.16978
-3.16978
-2.28454
2.28454
-0.248263
0.248263
-0.55352
4.30447
3.19743
3.19743
-2.03933
2.03933
-4.86315
4.86315
6.21803
-6.21803
4.65952
-4.65952
-1.61045
-2.13134
1.15225
-10.8576
-5.44839
-5.44839
-8.44038
8.44038
-2.81395
2.81248
2.94397
-2.94397
-1.77861
1.77861
-4.37259
-0.0620299
-4.37259
4.4259
0.00872335
4.4259
-1.03306
0.0949495
-1.03306
3.91033
-3.91033
0.81033
0.127779
0.81033
3.06483
-3.06483
-1.87705
3.75348
1.8739
-1.87186
6.17633
-1.8791
3.75363
-5.96646
5.96646
-3.1515
0.220994
-3.1515
2.75598
0.174526
2.75598
-6.75744
6.75744
-2.40446
0.0556936
-2.40446
2.33711
0.0116546
2.33711
2.86854
-2.86854
-2.657
0.100049
-2.657
2.44731
0.10964
2.44731
0.353533
5.2729
-5.97996
8.79244
-5.2729
0.0264884
5.20834
0.0380669
5.20834
-5.10606
0.0371683
-5.10606
5.01201
0.0568858
5.01201
4.75814
-0.0909726
4.75814
-4.78222
0.11505
-4.78222
-3.83632
-4.69285
-6.23992
0.191072
-6.23992
-1.29527
0.000652572
-1.29527
1.25147
0.0431496
1.25147
-3.61559
3.61559
-4.19609
0.391428
-4.19609
3.12421
0.0455742
3.12421
1.8685
1.88245
5.61945
-5.61945
2.44967
-2.32355
0.0390169
-2.32355
-2.3249
-2.33462
2.3249
-0.0403676
-0.507712
0.259448
-0.507712
3.15929
0.0381417
3.15929
2.28953
0.157783
-2.28953
0.250198
3.22088
-3.22088
1.38558
0.653753
1.38558
-5.56664
5.56664
4.95396
0.0580482
-4.95396
0.0908124
6.15689
0.0611378
6.15689
-6.19957
-0.0184571
-6.19957
2.42835
-4.5597
-2.48047
5.80133
0.247521
-5.80133
0.352935
2.91436
0.0296085
2.91436
-2.92078
2.92078
-2.98319
0.0392187
-2.98319
-2.18112
0.402516
-2.18112
1.47645
0.302153
1.47645
-4.23801
-0.134579
-4.23801
-4.34236
0.146275
4.34236
0.0835384
1.09515
-1.09515
-1.14374
0.110683
-1.14374
-4.06482
-0.173192
4.06482
-0.154494
-3.78298
-0.127351
-3.78298
-3.02356
0.0403719
3.02356
0.0412685
3.11262
0.0466711
-3.11262
0.047795
-1.87083
3.75328
-1.88012
3.75403
-5.58265
-0.383811
-5.58265
6.27412
-0.307664
6.27412
3.49458
0.310081
-3.49458
0.343074
2.61993
0.136053
2.61993
-6.73029
-0.0271427
-6.73029
6.72892
0.0285186
6.72892
2.50492
0.115011
-2.50492
0.100461
2.33235
0.00476199
2.33235
2.88313
-0.0145898
2.88313
-2.86626
-0.00228513
-2.86626
2.8001
-2.8001
2.73244
0.0676662
-2.73244
0.0754354
-11.1329
11.1144
-0.0350542
-11.0978
5.17329
5.17329
4.18737
0.570772
4.18737
-4.99761
0.215388
-4.99761
3.14878
-5.62926
3.49688
-7.3332
5.09759
-15.9552
4.23519
-8.92804
6.5646
-6.5646
6.4156
0.148994
-6.4156
0.175684
-1.32373
0.0284542
-1.32373
-3.00892
-0.60667
-3.00892
4.26831
-0.652726
4.26831
-3.02886
3.02886
-3.07788
0.0490159
3.07788
0.0463311
2.35143
-0.0190778
-2.35143
0.0278717
0.664361
0.145969
-0.664361
0.15665
3.40709
-0.186211
3.40709
-3.04053
-0.180348
-3.04053
-1.35242
0.0286961
1.35242
0.0331545
-5.81448
0.247843
-5.81448
-11.1908
0.0930127
-11.1527
-6.10656
-6.10656
2.33382
11.1263
-2.88739
0.0211326
2.88739
0.0269706
2.97592
0.0529397
-2.97592
0.0551424
-2.86245
0.0623429
2.86245
0.0583322
-2.55925
0.378128
-2.55925
-1.06671
1.06671
-1.23966
0.172951
1.23966
0.23679
1.35158
-0.256422
1.35158
1.21092
0.0405559
-1.21092
0.0671747
-3.67473
-0.108246
-3.67473
6.49755
-0.223428
6.49755
-2.9383
-0.102232
2.9383
-0.0551704
-0.0333425
11.1477
-5.13994
0.0338832
5.13994
-11.2089
11.2428
-3.23372
0.67447
3.23372
0.953653
5.28885
0.277786
-5.28885
0.291243
6.66923
0.0596826
-6.66923
0.104635
-2.51946
-0.489456
-2.51946
-4.99905
-0.583597
4.99905
-0.730739
-11.4743
-0.204906
11.6792
-11.4174
6.01939
0.137506
-6.01939
11.3803
-1.00863
-0.0865285
1.00863
0.0580867
1.6701
-0.318522
1.6701
3.57966
-0.17257
-3.57966
-0.0950703
-6.64424
-0.0860543
6.64424
-0.146688
-2.08053
-0.438926
2.08053
-0.410436
-4.26698
4.30512
1.90935
-2.40965
-2.15005
-4.74427
1.85194
1.90134
4.30162
-10.1477
-5.80749
-9.79481
7.2663
-6.97506
-9.27018
9.1792
7.64503
-7.77238
-5.78527
5.8316
6.4823
-6.44103
1.87866
1.87482
7.90198
-7.68099
-15.6878
15.304
7.48575
-7.43006
15.8277
-15.8549
-17.8686
17.9282
-5.7164
5.81645
-6.72599
6.72371
-6.94867
6.8935
-3.4793
-3.8539
13.0867
-12.8956
8.18579
-8.14677
-8.51844
8.90987
3.38248
0.922639
3.42915
-1.88227
3.76093
-1.87136
3.78071
2.68443
-6.16373
2.94482
-5.09487
3.81819
4.3676
-3.77782
-0.966444
-5.91944
5.94905
-5.82091
5.87924
8.97906
-9.04109
-1.88519
3.76001
-1.86884
3.77017
-3.42517
-2.3601
3.37959
0.922023
7.966
5.12071
-8.21353
-1.58128
-7.89455
7.72198
-8.16906
7.98871
-0.440879
5.81954
-5.37866
4.42227
-1.55893
7.37847
5.70737
5.92276
5.86671
-5.58892
1.10835
-6.48701
-6.3962
-2.52271
2.6334
2.45094
-2.32316
5.99427
1.65075
5.83978
-5.59764
-2.17474
-5.70588
3.82112
2.01048
3.87014
4.0768
2.4055
4.11717
3.03086
-3.03575
0.00489141
-3.05635
6.08721
0.724259
-5.41646
-4.49443
4.94296
2.95902
5.11749
-5.47994
-2.20105
-5.13687
-9.57015
-6.1177
-10.1537
10.1262
5.17781
9.81857
-12.0067
11.86
4.77004
2.7157
4.7817
-4.92451
-2.50555
-4.82405
11.6606
-2.58479
-9.07584
-10.3363
-7.53228
10.3078
5.51994
10.946
6.98223
11.0507
4.42874
7.23189
-9.94868
2.4164
-3.86713
-1.84926
-3.7917
3.68825
2.1282
3.79789
-4.21309
-2.5129
-4.19196
-4.28751
-2.66115
4.3021
2.42161
-4.40231
-3.76675
4.50454
2.38895
4.41306
-10.2206
4.51498
-8.36888
-9.19609
-3.69956
-9.0204
3.61847
2.90648
-6.52495
-2.54527
8.60658
-4.23899
7.64014
-4.9772
-3.16957
-4.94933
-6.81241
-1.70603
-6.66613
-8.89218
8.40273
-9.20289
8.55016
12.63
-5.70383
-6.92622
-3.96822
-2.47281
3.92043
-0.491275
-3.71094
3.71583
0.0499854
3.83069
4.75333
4.26206
-3.88694
-1.93397
-3.8318
3.83187
2.04737
3.89421
6.7612
2.21786
6.76992
-6.47059
-2.5705
-6.60516
9.07027
-8.66775
2.89124
-2.86254
5.31579
2.67293
-5.12957
-2.76497
6.20565
-3.16444
-3.04121
-12.2082
10.5567
1.65146
-4.82973
-0.407459
-0.159195
-5.49865
-3.77153
5.3836
0.539159
11.0959
7.32437
-5.51333
5.76117
6.1659
6.22395
-0.172248
5.83273
-5.15826
5.31764
-2.43904
-2.8786
5.32567
-5.49886
-1.2795
-5.36006
4.08057
0.34092
1.71834
-1.45889
-1.97901
-0.5437
-1.91184
1.47446
0.976479
1.62043
0.959331
1.67407
-2.95627
0.554147
2.40212
-1.99694
-1.76901
-3.69715
-1.06004
4.75719
5.60617
2.11581
-5.5111
-0.194786
2.66839
-2.62524
-0.757575
-2.93957
2.15306
-2.91063
-3.66145
-1.90025
5.5617
-3.37065
-0.461148
3.31771
0.552432
-3.82558
-2.09386
3.78636
0.330812
-3.125
6.19049
-3.06549
-5.05897
2.52865
3.55857
4.53912
-4.78986
2.44652
2.34335
-1.2313
4.22418
0.893305
4.36024
-6.7698
4.56876
5.74892
3.16094
-6.059
0.922135
-5.84767
8.45968
-7.28528
-1.1744
4.0761
4.38358
7.14296
5.48709
-5.7115
12.8545
-1.163
-6.12228
7.01067
-3.84973
4.78908
-8.6388
-10.2762
4.15388
-9.22634
11.0057
-1.77936
-3.62929
-8.37741
12.8556
-1.21773
-11.6379
8.60084
-4.17663
-4.25644
8.43307
-6.76141
6.76198
-1.95076
-4.81123
-10.1436
-5.71123
10.2297
1.63033
-9.83273
12.2491
-2.60085
4.08989
0.691814
4.09465
3.24089
-5.39193
2.15104
3.52052
-5.47128
2.06293
-7.45485
-6.79503
12.1435
-5.3485
-10.4946
-9.5684
-0.926186
2.50015
9.74899
-9.48237
7.38915
2.09322
3.30916
0.585057
-3.37682
-0.414876
0.256641
4.53241
-4.78905
4.05453
4.21231
3.34489
1.18752
3.84042
2.10863
-3.86739
-0.324574
-4.15567
1.49452
-1.73407
-3.67249
5.16701
-4.06316
0.390668
-2.73515
-3.5096
6.24475
-4.58441
3.03947
3.15102
5.08684
-4.91291
1.40331
-2.40029
-2.51262
2.65985
-4.39392
1.96874
3.19827
4.35769
0.590943
5.99791
6.14562
-8.90439
0.53551
11.2663
-9.68505
2.50082
8.54983
-9.88997
0.321574
-8.69883
1.20992
-5.44891
-5.31503
5.11515
-6.82118
-3.52365
6.15295
0.616967
-6.23649
-0.429641
-6.04057
-2.85161
-6.4795
-3.05896
-6.14393
-8.77046
-1.65213
-7.11833
6.7506
-6.69661
-3.45714
7.42735
1.12282
-7.40804
7.32151
-7.48662
7.1681
0.0948608
3.62097
4.35692
1.88411
-2.38967
4.27378
-5.09681
7.31467
-8.60476
3.50795
4.05685
-6.62735
-4.54791
5.03344
4.03683
5.33559
8.92598
-10.442
1.516
-10.7348
12.062
-1.3272
-16.5097
5.77492
-7.58369
2.60692
0.284317
2.63538
0.626573
2.46732
-3.09389
-2.23597
-2.20282
-2.36099
-3.45752
5.81851
1.16731
-3.45467
2.28737
-3.51405
4.68136
-0.0861243
-3.36855
5.30396
-2.83665
5.58828
-3.60017
1.98811
3.36901
5.72954
-2.36053
4.37846
-1.70553
1.84403
-4.20457
-1.61348
-2.96814
5.09634
-3.27661
3.66728
-0.307286
3.97457
-4.08084
0.916404
-0.735958
3.47635
3.72655
4.2811
-3.09357
2.96468
-4.67021
-1.23988
-4.07927
-0.880998
-0.306108
-3.74646
4.05257
6.02908
-6.33519
-5.26004
9.56439
-4.30434
7.71694
-5.40314
-2.3138
-4.27048
-4.39727
3.89235
1.94037
9.65731
0.208743
-5.61188
-4.94951
-3.99586
3.20732
2.11032
-1.92036
3.57182
2.07955
-0.361211
0.549508
1.07092
1.85411
-1.3046
0.231322
1.62278
-1.22757
1.95639
0.712004
-1.99694
0.0851035
-1.35001
3.50307
1.05211
-2.02859
0.723993
1.05374
-3.49278
4.86577
-2.51025
-2.35552
5.91951
1.16327
-3.67352
4.19679
-3.85587
2.33528
-3.39532
-1.33824
-5.19411
-3.54335
-2.5691
4.85647
-3.24941
5.36522
1.19502
-5.17043
6.36545
-3.59703
1.69677
-3.08322
3.79523
-1.08433
-1.99889
2.83394
2.72777
-2.95977
0.0201978
-0.125836
2.34222
-2.46805
-0.568412
-2.56535
-4.57222
4.90303
-2.10707
4.55358
2.16672
-1.91479
6.46837
1.811
-3.72579
-3.24796
-3.70911
-1.38244
3.15668
-0.571405
-4.25264
-5.38263
4.13763
0.222603
-6.87765
7.67508
-0.797431
-3.91862
-0.650132
4.72623
-5.94596
0.474675
-3.88303
3.79205
4.68535
4.90796
-11.4269
-0.211025
-6.24906
1.13286
-7.38192
5.51644
-3.57606
7.72994
-10.4012
6.94407
-9.2784
6.55554
-0.826378
6.25978
-4.10874
2.81606
-8.5273
-6.89696
5.43834
-2.72263
6.13015
-3.10958
9.23973
-5.71043
5.20093
4.0388
-0.904395
-4.04494
-5.23157
4.32717
-0.0306313
4.06402
4.97364
-2.86501
4.64907
2.25775
-4.65804
-2.13617
-6.49805
1.84001
-3.34703
-1.91706
3.75707
3.16979
3.75484
1.24445
-3.33997
7.27388
-8.20006
-1.92538
-3.38965
5.25357
-0.926403
3.3649
-6.75455
-2.08401
4.85406
-0.797359
-4.0567
0.849773
-4.37343
1.65571
-6.02913
5.16547
-5.59512
2.21352
-9.79721
-5.19452
-5.13644
-2.25054
-5.23608
-7.60393
5.35339
-1.82901
5.4925
-8.57134
7.77398
-3.49061
8.84401
-5.43246
-1.04704
5.8429
1.32519
10.1692
0.160667
-4.70858
-1.87147
3.9358
-2.06433
1.33585
-3.58579
0.350006
2.48216
3.43735
-6.56273
-0.064624
-4.7732
-3.92101
7.95784
5.64338
11.6725
1.23048
9.15
-1.19216
10.3805
4.14343
4.38022
-3.02518
4.54117
1.02739
4.53534
-0.838934
2.82704
1.79644
1.79709
0.828148
2.31961
1.40694
3.23601
0.142122
-2.06069
4.63813
-8.63399
-0.973755
-8.06322
1.11598
5.72662
-4.61063
3.09917
-0.988848
1.03484
0.0818188
-1.60073
1.51891
-2.79678
-1.96194
-0.33916
-1.63329
2.35728
1.86978
-2.01812
-0.778663
0.333524
-3.87688
3.06179
-3.0416
-0.313828
6.05162
-2.75992
0.291864
-1.06314
-2.27349
-2.81719
2.73208
6.17725
0.291121
3.11176
5.19415
3.10029
0.235278
3.89037
-5.66973
-3.56448
-5.88076
-0.364318
4.36192
1.77067
7.97832
5.80947
4.88307
-1.87148
-10.0715
6.56886
-2.02769
5.24166
-1.18496
-4.84417
4.99493
2.31974
-5.6119
0.0167809
-4.82739
-6.85508
-0.521882
8.29587
-9.64732
8.60029
5.74868
1.36965
-4.40774
-0.7287
4.23478
0.145437
10.5259
-1.12878
-6.81562
7.9444
-4.59784
3.62408
0.831254
2.74056
2.35017
1.36132
-5.4543
-10.0649
-1.92825
-1.56453
-4.28377
0.473414
-2.34319
6.25047
-2.62639
3.93667
5.31802
6.35286
-2.16077
-4.17441
6.46512
-2.52845
3.82441
)
;

boundaryField
{
    wall-4
    {
        type            calculated;
        value           uniform 0;
    }
    velocity-inlet-5
    {
        type            calculated;
        value           uniform -3.75095;
    }
    velocity-inlet-6
    {
        type            calculated;
        value           uniform -5.62643;
    }
    pressure-outlet-7
    {
        type            calculated;
        value           nonuniform List<scalar> 8(3.04907 6.60064 3.7418 9.70539 8.52917 4.90883 6.64566 9.33278);
    }
    wall-8
    {
        type            calculated;
        value           uniform 0;
    }
    frontAndBackPlanes
    {
        type            empty;
    }
}


// ************************************************************************* //
