/*--------------------------------*- C++ -*----------------------------------*\
| =========                 |                                                 |
| \\      /  F ield         | OpenFOAM: The Open Source CFD Toolbox           |
|  \\    /   O peration     | Version:  2412                                  |
|   \\  /    A nd           | Website:  www.openfoam.com                      |
|    \\/     M anipulation  |                                                 |
\*---------------------------------------------------------------------------*/
FoamFile
{
    version     2.0;
    format      ascii;
    arch        "LSB;label=32;scalar=64";
    class       volVectorField;
    location    "36";
    object      U;
}
// * * * * * * * * * * * * * * * * * * * * * * * * * * * * * * * * * * * * * //

dimensions      [0 1 -1 0 0 0 0];

internalField   nonuniform List<vector> 
918
(
(0.985164 -0.000499463 0)
(0.0050105 2.96625 0)
(-0.0213967 0.803284 0)
(0.979702 0.00214941 0)
(-0.0940438 1.7723 -4.17982e-20)
(-0.00704411 2.94879 -2.69347e-18)
(0.830647 1.17344 3.71287e-19)
(0.309871 0.14202 -1.77939e-20)
(0.999908 -0.000285116 0)
(0.0516356 0.828537 0)
(0.0038756 0.636075 0)
(0.734582 -0.0123301 0)
(0.0111379 2.93033 0)
(0.00234059 2.79517 0)
(-0.017649 3.15678 7.07078e-19)
(-0.0162083 1.83188 -7.95571e-20)
(0.381909 0.04287 1.17406e-18)
(0.190472 1.18262 2.37124e-19)
(0.962787 0.00501943 0)
(0.00129556 0.625701 0)
(0.0733771 0.188368 -8.38624e-19)
(1.00198 -0.0049821 0)
(1.00022 -0.00979519 0)
(0.975721 -0.00644383 0)
(0.585662 -0.036713 0)
(0.0162949 2.63812 0)
(-0.0149521 2.91007 1.00629e-18)
(-0.0157148 0.829957 0)
(-0.0554301 1.00272 0)
(-0.0156279 0.808288 0)
(-0.133524 2.56999 0)
(-0.101224 1.92144 3.31879e-20)
(-0.0507912 1.72131 0)
(-0.0206019 2.9876 -9.74946e-23)
(-0.0166893 3.00529 2.09329e-18)
(0.00210194 3.00018 0)
(0.870602 -0.00944722 0)
(0.403148 0.936455 2.29301e-19)
(0.811075 1.19002 -3.57299e-19)
(0.95845 1.02859 4.2897e-19)
(0.680987 1.2833 -8.50994e-20)
(0.67983 1.26829 5.00183e-19)
(0.35168 0.227903 1.73595e-20)
(0.32517 0.112371 0)
(1.13351 0.552396 0)
(0.317216 0.223378 7.93206e-20)
(0.280055 0.150668 -8.23129e-20)
(0.919721 -0.00745945 0)
(1.00027 0.000141298 0)
(0.999909 0.00032892 0)
(1.00363 -0.00777637 0)
(1.00096 -0.000931697 0)
(1.00017 2.84786e-05 0)
(0.080638 1.80412 -9.41848e-19)
(0.0331889 1.00001 0)
(0.0868379 0.895501 0)
(0.0136464 0.954872 0)
(0.0361653 0.767085 0)
(0.0230755 2.00034 0)
(0.0117789 0.81282 0)
(0.0241142 0.654146 0)
(-0.00377255 0.805459 0)
(-0.00767684 0.633478 0)
(0.83712 -0.015605 0)
(0.849513 0.0280014 0)
(0.767996 -0.00235422 0)
(0.821763 0.037269 0)
(0.702977 -0.0177803 0)
(0.0146895 3.00041 1.00161e-18)
(0.0115003 3.00804 0)
(0.00611088 3.00277 0)
(0.0135516 2.99737 1.14136e-23)
(0.00796641 2.95846 -1.48863e-18)
(0.0144984 2.98201 0)
(0.0108642 2.90357 0)
(0.0244147 2.93051 2.35067e-24)
(0.0045248 2.82529 0)
(0.0311104 2.9163 0)
(-0.00525662 2.74513 0)
(0.308605 3.55381 0)
(-0.131869 3.63538 0)
(0.139649 3.24726 6.58018e-19)
(-0.0126582 2.9826 0)
(-0.0961849 2.27944 0)
(-0.0220143 2.09487 7.84608e-20)
(0.0102402 1.87701 -8.72243e-20)
(0.472754 0.145632 -4.06271e-19)
(0.379507 0.0239138 -3.92038e-19)
(0.457621 0.168243 -1.22347e-18)
(0.367019 0.0627758 -8.0642e-19)
(0.219028 0.947084 0)
(0.272776 1.32345 -3.07079e-19)
(0.376541 1.26812 5.18824e-19)
(0.987496 0.00856635 0)
(0.941943 0.00588273 0)
(1.0003 0.000578429 0)
(1.00286 0.0093053 0)
(1.00302 0.00846267 -3.14366e-18)
(0.991915 0.0096952 2.37403e-18)
(-0.00228203 0.789878 0)
(-0.00874406 0.633974 0)
(0.019668 0.857245 0)
(-0.0208327 0.79201 0)
(0.000275049 0.628679 0)
(0.115547 0.194566 2.59255e-19)
(0.171878 0.172058 0)
(0.993536 -0.00838231 0)
(0.954405 -0.00652258 0)
(0.773396 0.0456951 0)
(0.710011 0.0561358 0)
(0.66192 -0.0301057 0)
(0.95548 -0.010697 0)
(0.625955 0.0721219 0)
(0.452812 -0.0165328 1.71879e-18)
(-0.0365392 2.8635 7.889e-19)
(0.0416587 2.90952 0)
(0.0547687 2.88495 0)
(-0.00457462 2.69926 0)
(-0.0130524 2.9852 9.59251e-19)
(-0.0180066 2.89518 0)
(-0.0154135 2.98806 -2.96102e-18)
(-0.0132973 2.9252 1.01182e-18)
(0.0322302 1.22356 0)
(-0.0172422 1.31691 0)
(-0.028074 2.05634 -1.99384e-21)
(-0.0668367 1.97605 0)
(-0.036707 1.79172 0)
(0.93782 -0.00771824 0)
(0.856143 -0.00937103 0)
(0.863499 0.00648808 0)
(0.949079 -0.00797362 0)
(0.883555 -0.00819538 0)
(0.515356 1.13038 -2.87008e-19)
(0.564938 1.18235 0)
(0.367023 0.880193 4.05014e-20)
(0.309359 0.73946 0)
(0.917789 1.06679 -1.12906e-19)
(1.02818 0.868406 2.2059e-19)
(0.371296 1.375 0)
(0.534302 1.34532 0)
(0.545555 1.29841 0)
(0.113242 0.181944 -3.35844e-19)
(0.385827 0.214939 0)
(0.351755 0.106036 2.27411e-19)
(0.998592 0.92341 0)
(1.06267 0.771462 0)
(1.08772 0.712244 -1.47839e-19)
(1.11372 0.613249 0)
(1.15797 0.396946 5.44181e-20)
(0.957439 -0.00883062 0)
(0.962334 -0.0101327 0)
(0.901428 -0.0079671 0)
(0.984164 -0.00918074 0)
(0.974626 -0.00941217 0)
(0.937036 -0.00636642 0)
(1.00018 0.00233859 0)
(1.00091 0.00139103 0)
(0.999913 0.00085433 0)
(0.0335522 2.06044 5.14934e-19)
(0.121327 1.74578 0)
(0.0124484 2.17533 3.94502e-19)
(0.0567041 1.86202 -7.1634e-19)
(0.105053 1.18735 -1.92609e-19)
(0.0461836 1.07433 0)
(0.141321 1.04224 0)
(0.010459 0.906505 0)
(0.0184313 0.72794 0)
(-0.00557348 2.21772 -2.11365e-21)
(0.0302056 1.98804 0)
(-0.00628122 2.19499 -1.12957e-19)
(0.028955 1.99897 -1.11804e-20)
(0.00873875 0.868821 0)
(0.0138822 0.838171 0)
(0.0229588 0.690864 0)
(-0.00240388 0.805723 0)
(-0.0135602 0.629417 0)
(0.934787 0.00885734 0)
(0.843981 -0.0147152 0)
(0.925129 -0.000440512 0)
(0.839556 -0.0126544 0)
(0.812455 0.00190047 0)
(0.902236 0.0194978 0)
(0.879218 0.0237057 0)
(0.789283 2.55477e-05 0)
(0.00562531 3.0647 -9.47244e-21)
(0.0165695 3.05786 0)
(0.0146293 2.96906 0)
(0.008572 2.87625 0)
(0.925599 3.97051 0)
(1.24023 3.30262 9.17052e-19)
(0.0700354 3.07485 0)
(-0.0284219 2.90604 0)
(0.0936041 1.48052 0)
(0.0194127 1.96105 0)
(-0.0271883 1.77878 0)
(-0.094076 2.52049 3.81937e-20)
(-0.0827642 2.408 0)
(-0.136224 2.49044 0)
(0.0238494 1.96761 1.38433e-21)
(-0.0162935 2.12886 8.49187e-20)
(-0.0207114 2.11181 8.88333e-20)
(0.0231259 1.92871 0)
(0.498472 0.120468 6.09755e-19)
(0.39683 0.00436286 -5.99077e-19)
(0.260761 1.57144 0)
(0.26748 0.723015 -3.37581e-19)
(0.177507 1.6562 -1.13907e-18)
(0.226955 1.19055 1.142e-18)
(0.902275 0.00654855 0)
(0.967527 0.0110024 0)
(0.97462 0.0107665 0)
(0.92346 0.00651454 0)
(-0.0148458 0.813025 0)
(-0.00480368 0.80307 0)
(-0.00797631 0.63447 0)
(0.272025 0.220653 7.30654e-19)
(0.224741 0.20518 -8.64286e-19)
(0.235518 0.16411 0)
(1.0767 0.0806093 3.64467e-20)
(1.05809 0.035649 0)
(0.998974 0.0370637 0)
(0.896797 -0.00854645 0)
(0.52414 0.0961949 0)
(0.559358 0.0764762 -2.74966e-18)
(0.418439 -0.00269541 1.0309e-18)
(0.0091133 2.98086 8.28149e-19)
(-0.0331199 2.86572 4.60807e-20)
(0.00369829 3.05023 -1.99621e-20)
(0.020136 3.0434 7.08974e-19)
(-0.0149946 2.99656 3.31353e-20)
(-0.0129826 2.94947 -1.33125e-22)
(-0.0172807 3.01194 -6.09542e-19)
(0.0148908 3.02375 4.41249e-19)
(0.00738801 3.03686 -7.02024e-19)
(0.932351 -0.00190488 0)
(0.938391 -0.00389338 0)
(0.843989 -0.00886139 0)
(0.956763 0.0116707 0)
(0.943142 0.0128694 0)
(0.881844 0.0061782 0)
(0.918393 0.0160602 0)
(0.926737 0.0145728 0)
(0.838834 0.00420744 0)
(0.71911 1.40987 -2.17333e-20)
(0.752903 1.51934 0)
(0.189306 0.327396 8.23757e-20)
(0.216641 0.654875 6.64508e-19)
(0.258735 0.716818 -3.84378e-19)
(0.265771 0.534987 7.66285e-19)
(0.331448 0.783602 1.75343e-18)
(0.13094 0.220281 4.02857e-19)
(0.432253 0.189492 -8.44277e-19)
(0.410152 0.206009 2.22309e-19)
(0.36323 0.0876193 4.24651e-19)
(1.14787 0.455433 -3.3322e-20)
(1.15951 0.249953 -4.24911e-20)
(0.00252016 2.21808 3.37198e-19)
(0.0532847 1.92307 0)
(0.962595 0.0273909 0)
(0.938012 0.0126985 0)
(0.86118 -0.0185872 0)
(0.0112954 3.07455 0)
(0.0198094 2.94404 1.31573e-18)
(0.0164557 2.95642 0)
(0.00623413 2.85065 -1.30542e-18)
(0.00615735 3.09098 3.20953e-19)
(0.00719927 3.08236 0)
(0.786049 1.82241 -1.4363e-19)
(1.24788 2.5014 3.56216e-19)
(0.768316 1.96246 -1.18884e-18)
(0.0203595 2.98215 -7.28543e-19)
(0.0359079 3.00249 0)
(-0.0335358 2.87928 0)
(-0.00796695 2.17526 -7.27603e-21)
(-0.0105299 2.15206 -4.19093e-21)
(0.0235116 1.98877 -4.58974e-21)
(0.274375 1.37781 1.09982e-18)
(0.223178 0.508814 -7.53928e-19)
(0.0624768 1.98525 8.5541e-19)
(0.137302 1.87465 -1.0046e-18)
(0.179503 1.48495 9.09255e-20)
(0.00194944 3.11913 -2.0228e-18)
(0.0140093 3.11874 2.18389e-18)
(-0.0088561 2.98123 8.91606e-19)
(-0.00388946 2.97764 -8.51316e-19)
(-0.0211195 2.88129 -9.08081e-19)
(0.0086559 3.10024 -2.39583e-18)
(0.00235202 3.10519 2.35699e-18)
(0.272971 0.680242 0)
(0.235346 0.669326 -1.37163e-18)
(0.0967972 0.221622 6.06851e-19)
(0.34681 0.90873 1.19736e-18)
(0.185992 0.263984 -1.84774e-18)
(1.15591 0.169018 1.03604e-19)
(1.16157 0.304305 0)
(1.14229 0.117657 -5.31364e-20)
(-0.00207463 2.22844 -2.79892e-21)
(-0.00119606 2.2295 0)
(0.0358867 1.96254 0)
(0.338308 1.28632 -3.96518e-19)
(0.365484 1.1188 -8.54994e-19)
(0.199317 0.35991 1.5271e-18)
(1.00587 -0.0108711 0)
(1.00766 -0.00765501 5.80719e-19)
(0.0527005 1.22972 0)
(0.0100569 1.10971 0)
(1.00222 0.00350208 1.80507e-21)
(1.00365 0.00943037 1.18432e-18)
(-0.0850128 2.53001 -4.8732e-20)
(-0.065257 2.54581 0)
(0.0361557 3.17933 5.05494e-19)
(0.395869 3.49257 0)
(1.14048 0.652722 -1.04104e-19)
(1.01291 0.013072 -2.13135e-21)
(1.02122 -0.0104224 0)
(1.00168 9.50929e-05 6.53332e-23)
(0.0982005 1.35283 0)
(0.148978 2.58197 0)
(0.0167351 1.30257 0)
(-0.00099818 2.63075 1.15296e-19)
(-0.0252331 2.58278 8.54004e-20)
(1.0027 0.0273998 2.47341e-21)
(1.06145 0.00333049 0)
(1.09438 0.0222519 0)
(-0.0096233 1.90555 0)
(-0.0320884 2.57415 0)
(0.0358085 1.2491 0)
(0.28852 1.46674 -9.04512e-20)
(1.01125 -0.00965841 0)
(1.00939 -0.0149371 0)
(1.00233 0.000687802 7.41537e-19)
(1.00547 -0.00484759 -8.72194e-19)
(1.00119 -0.000993126 0)
(0.0932013 1.60725 0)
(0.0842492 1.3355 0)
(0.0541551 1.51073 0)
(0.0351581 1.22643 0)
(0.0284383 1.13881 0)
(-0.00118161 1.09074 0)
(1.0343 -0.00652766 0)
(1.02074 0.0157031 -9.2503e-22)
(0.796861 1.26404 1.81567e-19)
(1.00228 0.000245137 -7.41092e-19)
(1.00406 0.0052397 8.64737e-19)
(1.00118 0.00205805 0)
(1.01286 0.0102603 7.36553e-19)
(1.00803 0.0082699 -8.90589e-19)
(1.0086 0.0146653 0)
(-0.0441711 2.592 0)
(-0.0557037 2.56116 8.38492e-20)
(-0.0462971 2.57686 -5.85567e-20)
(1.2189 0.253026 7.88257e-19)
(1.1537 0.0792523 0)
(0.0448524 3.07735 -1.06476e-18)
(0.0658198 2.85338 -7.69167e-20)
(0.142279 3.19355 1.60785e-18)
(0.136916 3.22251 -2.62316e-19)
(0.135452 3.23523 0)
(0.0204802 3.13786 2.79627e-19)
(0.0770687 3.16049 1.05214e-18)
(0.0695521 3.18686 -5.25732e-19)
(0.023427 3.12926 0)
(0.653021 0.301123 0)
(0.575091 0.346516 0)
(1.11001 0.685496 2.75795e-19)
(1.10588 0.813986 1.36928e-19)
(1.16887 0.572169 0)
(1.19868 0.511276 0)
(1.01617 0.0132933 -1.37424e-18)
(1.015 0.0142633 -1.54205e-21)
(1.02515 -0.0100148 0)
(1.02318 -0.0120065 0)
(1.00648 0.00257285 0)
(1.01042 0.00367311 0)
(1.00462 0.00182296 0)
(1.00986 0.00615417 0)
(1.0078 0.00598089 0)
(1.00452 0.0045957 0)
(0.087811 1.3493 0)
(0.0802078 1.32394 0)
(0.118844 1.38561 0)
(0.128461 1.39905 0)
(0.14656 2.60607 0)
(0.187094 2.67175 -4.9366e-19)
(0.0998775 2.66372 0)
(0.0885587 2.66653 2.68081e-19)
(0.0385932 2.6877 -2.68243e-19)
(0.0363242 1.31418 0)
(0.0119488 1.23805 0)
(0.0341657 1.32369 0)
(0.0377378 1.26695 0)
(-0.00410117 1.98939 -7.31825e-20)
(-0.0265882 2.61081 7.67923e-20)
(-0.0137979 2.67349 1.20445e-19)
(-0.0216176 2.68427 0)
(-0.03015 2.61464 -2.02659e-19)
(-0.0281777 2.60694 -1.25481e-19)
(0.00627342 1.98933 5.61745e-20)
(-0.0178585 2.41355 -1.03001e-19)
(-0.0202503 2.43101 -1.36569e-19)
(1.01153 0.0355856 1.39582e-18)
(1.00799 0.0167112 3.54151e-21)
(1.00404 0.0417138 -1.4003e-18)
(0.982671 0.0217641 1.77994e-18)
(1.06256 0.00706626 0)
(1.04802 -0.00904599 0)
(1.09103 0.0327222 0)
(1.07224 0.0112285 0)
(1.06987 -0.0014618 0)
(1.13575 0.0757062 0)
(1.10748 0.0406272 0)
(1.10996 0.0284431 0)
(-0.102156 2.46534 -1.10882e-20)
(0.00960772 2.16523 0)
(-0.0673923 2.33886 0)
(-0.0371512 2.59311 4.36666e-20)
(-0.0303028 2.60293 -2.0066e-21)
(0.0476969 1.68875 7.80627e-20)
(0.0447351 1.60979 -7.93278e-20)
(0.0499598 1.41158 0)
(0.0494113 1.41933 0)
(0.0595937 1.42232 0)
(0.0407429 1.27397 0)
(0.0241139 1.15564 0)
(0.378224 1.48153 1.21567e-19)
(0.416639 1.48721 9.4784e-20)
(0.596726 2.45031 -2.57138e-19)
(0.403459 2.54572 7.67299e-19)
(0.354962 2.06919 9.97373e-20)
(1.02094 -0.00825295 0)
(1.01544 -0.00982156 0)
(1.01487 -0.0155479 0)
(1.00747 -0.00121649 0)
(1.0049 -0.000973808 0)
(1.00776 -0.00477503 0)
(1.00924 -0.00374451 0)
(1.01414 -0.00453279 0)
(1.02143 0.0159619 1.34698e-18)
(1.01813 0.0157561 -1.72699e-18)
(1.02191 0.0179187 -1.35634e-18)
(1.01977 0.016557 1.70178e-18)
(0.764414 1.31218 0)
(0.699616 1.36555 1.45318e-19)
(0.872596 1.20939 1.5496e-20)
(0.914928 1.16381 -2.06099e-20)
(1.15585 2.60816 4.61006e-19)
(0.809511 0.100546 6.75816e-19)
(1.15554 0.097857 0)
(1.1988 0.180656 -6.33102e-19)
(1.18256 0.145245 -2.67709e-20)
(1.0047 0.141826 0)
(0.137627 2.96192 6.44973e-19)
(0.114638 2.86763 -1.34109e-18)
(0.025806 2.37071 9.04318e-19)
(0.0924589 -0.00475422 -4.08388e-19)
(0.340587 3.42142 -1.57501e-19)
(0.194602 3.31396 0)
(0.237504 3.35625 2.05118e-19)
(0.246525 3.03508 -2.06511e-18)
(0.341326 3.19433 0)
(0.00736905 3.1208 5.33008e-20)
(0.0168877 3.12979 -6.22501e-19)
(0.0155465 3.12581 9.16225e-19)
(0.0363102 3.13979 0)
(0.0347455 3.15083 0)
(1.21488 2.60803 0)
(0.532392 0.840206 -5.95521e-19)
(1.03516 0.988712 6.15084e-20)
(0.971872 1.06365 0)
(0.819648 0.964317 -1.54737e-19)
(1.05819 0.87768 2.9331e-20)
(0.369381 0.405119 -1.04808e-18)
(0.69907 0.323781 -2.26194e-20)
(0.668638 0.242362 4.81983e-19)
(0.591355 0.379949 3.55223e-20)
(0.508609 0.35548 -1.42963e-18)
(0.667884 0.342061 0)
(0.702762 0.427343 8.18596e-19)
(0.710142 0.424024 0)
(0.626676 0.369593 0)
(0.602764 0.295677 0)
(0.793702 0.616248 4.99536e-19)
(1.21601 0.27614 -5.74519e-20)
(1.20974 0.415681 0)
(1.2216 0.358334 0)
(0.750979 0.190074 7.18303e-19)
(0.839935 0.535898 -4.49531e-19)
(0.742519 0.510678 -7.99081e-19)
(0.943058 0.422653 -8.92956e-19)
(1.01982 0.0145909 9.26197e-19)
(1.0179 0.0141832 -9.3108e-19)
(1.01595 0.015586 0)
(1.03578 -0.00615005 0)
(1.0295 -0.00865484 -8.7568e-19)
(1.02747 -0.0121858 8.67185e-19)
(1.02514 0.00957707 0)
(1.0237 0.0132346 0)
(1.01141 0.00402571 0)
(1.0143 0.00894689 0)
(1.0151 0.00392689 0)
(1.0142 0.00272932 0)
(0.0586398 1.33266 0)
(0.062134 1.29418 0)
(0.145537 1.35596 -8.43197e-20)
(0.266237 1.46386 4.06255e-20)
(0.157558 1.43454 8.00581e-20)
(0.18772 1.44294 -3.87494e-20)
(0.160127 1.38065 0)
(0.129882 1.58955 -1.63973e-19)
(0.115546 1.55982 0)
(0.354592 2.02288 -1.44977e-19)
(0.34864 2.35556 7.2163e-19)
(0.185843 1.44311 1.42956e-19)
(0.260931 1.37689 -1.75805e-20)
(0.198945 1.36153 -1.42701e-20)
(0.273036 1.31792 -1.98381e-19)
(0.242394 1.57416 1.98345e-19)
(0.261379 1.61561 1.86021e-19)
(0.0317341 2.275 -6.87991e-20)
(0.0411501 2.67835 0)
(0.0644056 2.41245 2.24006e-19)
(0.0577252 2.43436 0)
(0.0699943 2.67949 -2.96523e-19)
(0.0500596 2.7069 0)
(0.0240861 1.40621 -6.76395e-20)
(0.0328171 1.45787 0)
(0.0327587 1.37454 0)
(0.0230746 1.37895 7.63196e-20)
(-0.00344363 2.65979 -1.99139e-20)
(0.0276507 2.70565 3.14597e-19)
(0.00872852 2.72819 2.23133e-21)
(-0.00653488 1.83769 7.31646e-20)
(-0.0151142 1.67948 -3.29462e-20)
(0.00900366 1.29309 0)
(0.0044079 1.20721 0)
(0.0457805 1.56507 9.91742e-20)
(0.0284671 1.43976 9.40689e-20)
(0.0348173 1.50604 -1.18177e-19)
(0.0380519 1.58991 0)
(-0.0424683 2.28646 -1.15082e-19)
(-0.0516554 2.54807 5.12044e-20)
(-0.0203247 2.45225 -2.49463e-20)
(-0.0213077 1.85293 -8.85916e-20)
(-0.0358103 2.49964 -3.2874e-20)
(-0.0291129 2.44578 1.44789e-19)
(1.01994 0.0206536 -9.21818e-19)
(1.01621 0.0259321 9.24526e-19)
(1.01526 0.0162378 0)
(1.01181 0.0660146 1.29756e-18)
(0.992397 0.0556398 -1.44832e-18)
(0.954231 0.0426889 1.61717e-18)
(1.01546 0.102058 -1.73495e-19)
(1.04195 -0.00621184 0)
(1.05005 -0.00201828 8.39645e-19)
(1.0383 -0.0101578 -8.40476e-19)
(1.0698 0.0402865 -5.02817e-20)
(1.06337 0.0220027 4.32501e-19)
(1.06432 0.052587 0)
(1.05159 0.0475574 -1.54942e-19)
(1.03329 0.0395863 0)
(1.02621 0.0359073 0)
(1.02777 0.0126267 0)
(1.02442 0.0154905 0)
(1.03945 0.0301923 3.18688e-19)
(1.03943 0.0255707 -7.01784e-19)
(1.05021 0.0321223 -3.38707e-19)
(1.04731 0.0323252 -3.72364e-19)
(1.06804 0.0607984 7.33091e-19)
(1.09342 0.0482015 0)
(1.10118 0.0905311 0)
(-0.0530172 2.27983 -6.59015e-20)
(-0.00945235 2.12087 -1.07592e-20)
(-0.00313824 2.08131 0)
(-0.0477556 2.46153 6.62969e-20)
(-0.0448652 2.44037 2.13778e-20)
(-0.0695362 2.46071 -2.37043e-20)
(-0.0293033 2.61761 1.08872e-19)
(-0.0420388 2.55752 -8.52708e-21)
(-0.0313805 2.51524 3.87325e-20)
(-0.0268611 2.60953 -5.67394e-20)
(-0.0301416 2.61135 -2.02233e-21)
(0.0614595 1.56314 8.35803e-22)
(0.0272613 1.70686 9.17176e-20)
(0.3675 1.42133 -3.46048e-20)
(0.365688 1.36546 1.33284e-19)
(0.646543 1.41186 -1.4053e-19)
(0.514253 1.47619 -9.18977e-20)
(0.566758 1.44901 0)
(0.592187 2.42593 2.30689e-19)
(0.658989 2.41765 3.62795e-19)
(0.411117 2.5205 8.32182e-20)
(0.405346 2.5481 -7.32476e-19)
(0.513802 2.49296 6.92048e-19)
(0.551806 2.46403 0)
(0.489058 2.51998 -6.10783e-19)
(0.249101 2.59633 1.31097e-18)
(0.353943 2.5697 -8.32684e-20)
(0.285081 2.65816 -1.77611e-18)
(0.942409 2.3783 8.24352e-19)
(0.834493 2.3824 0)
(1.01091 0.000378975 3.01529e-20)
(1.0152 -0.00556038 -2.44895e-20)
(1.01765 -0.00366879 -4.47644e-19)
(1.01491 -0.00100605 4.49706e-19)
(1.01229 0.00100629 0)
(0.634571 1.28133 0)
(0.652275 1.17638 0)
(0.75449 1.08378 0)
(0.643966 1.14263 0)
(1.18536 2.62262 5.92434e-20)
(1.07362 2.36653 0)
(0.837092 2.18831 4.95089e-21)
(0.825737 2.44859 0)
(0.921743 2.53902 -5.20754e-19)
(0.957128 2.4951 0)
(0.818131 0.151339 0)
(0.787255 0.128087 1.84542e-19)
(0.925295 0.135418 1.07606e-18)
(0.840399 0.130394 -4.02878e-19)
(0.819634 0.0728266 -1.23376e-18)
(1.0753 0.221807 -1.08436e-18)
(0.996202 0.27988 -1.52781e-20)
(0.920676 0.276224 1.00615e-18)
(1.00577 0.209324 8.46925e-19)
(0.952796 0.177109 -1.43808e-18)
(0.918363 0.177903 1.79474e-19)
(0.950764 0.237946 -3.88131e-19)
(0.929702 0.200237 0)
(0.995372 0.175361 -7.11042e-19)
(1.04595 0.17459 0)
(1.04519 0.200963 0)
(1.1026 0.108309 3.45208e-19)
(1.0715 0.162725 -1.37467e-20)
(1.06926 0.223937 -5.52857e-19)
(1.0989 0.19038 0)
(1.02303 0.0437686 7.16543e-19)
(1.041 0.0560711 8.95741e-19)
(1.03363 0.0416571 -7.10372e-19)
(1.04142 0.0618881 -6.00381e-19)
(1.01745 0.0693145 -9.13113e-19)
(0.989698 0.1488 0)
(0.999153 0.0987712 0)
(0.970036 0.0638941 -5.75407e-19)
(0.921902 0.0854824 2.25662e-19)
(1.03734 0.0976132 8.30366e-19)
(1.06783 0.111248 -9.93093e-19)
(1.07135 0.143325 8.85202e-19)
(1.03046 0.135265 0)
(1.07335 0.101944 0)
(1.05607 0.0842616 -4.03033e-19)
(1.04438 0.0909307 -6.8097e-19)
(0.578002 1.07697 1.86432e-19)
(0.611655 1.41417 -8.91887e-20)
(1.15595 2.74174 -2.92183e-19)
(1.22275 3.08258 1.51004e-20)
(1.2482 2.72244 -2.73431e-19)
(1.27837 2.70651 3.25306e-20)
(1.20628 2.34553 -1.0055e-20)
(1.20989 2.98627 -1.48583e-19)
(1.22922 2.95124 3.21542e-19)
(1.21382 3.23619 -1.20464e-19)
(1.375 2.96765 1.6662e-19)
(1.36568 2.8857 0)
(0.538079 0.848004 -5.6974e-20)
(0.138711 1.25888 6.20241e-19)
(0.530972 0.462401 6.76018e-19)
(0.366691 0.213465 7.48529e-19)
(0.529885 0.388844 8.06942e-19)
(0.54333 0.480091 -1.31853e-18)
(0.545857 0.484585 1.07661e-18)
(0.497683 0.409926 -4.07536e-19)
(0.423148 0.34571 9.24322e-19)
(0.754215 0.248658 1.24969e-18)
(0.717748 0.284166 0)
(0.70743 0.21099 9.80363e-21)
(0.727568 0.514601 4.31625e-19)
(0.698459 0.482586 -1.57188e-18)
(0.6145 0.475437 1.63099e-20)
(0.625182 0.458419 0)
(0.668355 0.733905 4.57913e-19)
(0.819369 0.771459 4.88529e-19)
(0.744874 0.853863 -5.69255e-19)
(0.860932 0.803601 -1.98184e-19)
(0.894298 0.847943 -5.3824e-20)
(0.902569 0.849278 5.51118e-20)
(0.833824 0.643138 -8.28563e-19)
(0.911444 0.699454 1.84065e-19)
(0.968395 0.714029 0)
(0.959164 0.690399 -2.56124e-19)
(1.02158 0.319381 2.62142e-19)
(1.13291 0.289339 3.81492e-19)
(1.06158 0.258588 4.43391e-19)
(1.00654 0.354683 -5.2263e-19)
(1.04549 0.421063 0)
(1.09749 0.405879 0)
(0.908523 0.349778 5.47563e-21)
(0.841132 0.283011 0)
(0.869789 0.275607 4.70212e-19)
(0.904047 0.282166 -5.46488e-21)
(0.934882 0.425702 2.49305e-18)
(0.890771 0.486785 6.44522e-19)
(0.89592 0.450609 -6.7556e-19)
(0.818162 0.433775 -7.23787e-19)
(0.800708 0.430119 4.30033e-19)
(0.771149 0.417347 -4.22679e-19)
(1.02729 -0.000426444 7.46898e-19)
(1.01999 -0.000212623 0)
(1.01849 0.000736153 4.86418e-19)
(1.02163 -0.00199819 -3.38581e-21)
(1.02226 0.00408709 5.35418e-19)
(1.02042 0.0109971 -1.12146e-18)
(1.02138 0.0103944 0)
(1.02076 0.0106513 -2.3343e-19)
(1.016 0.00756893 5.8561e-19)
(1.01678 0.0102989 -2.92093e-19)
(1.01747 0.00964235 2.15219e-19)
(0.0305339 1.30916 0)
(0.0381706 1.34352 0)
(0.0414459 1.31027 0)
(0.0492777 1.27558 0)
(0.0693047 1.36896 1.39964e-19)
(0.07731 1.34164 -3.42742e-20)
(0.110594 1.49816 -6.34432e-20)
(0.0926314 1.34303 4.48439e-20)
(0.0324646 1.44242 -1.22435e-19)
(0.0365677 1.43392 9.47476e-20)
(0.0615229 1.35104 -5.36207e-21)
(0.0546504 1.35199 1.02159e-19)
(0.0499695 1.33139 -1.19201e-20)
(0.0401797 1.3529 1.44959e-20)
(0.10828 2.38392 -2.47695e-19)
(0.0962321 2.42775 0)
(0.173728 2.0569 1.48577e-19)
(0.110872 1.70782 8.26169e-20)
(0.232825 2.0498 -1.19583e-19)
(0.207997 2.44503 0)
(0.267826 2.39612 -7.15348e-19)
(0.306986 2.39398 5.07109e-19)
(0.234513 2.00835 -4.48198e-19)
(0.155005 2.17276 2.10229e-19)
(0.146247 2.29002 0)
(0.0128338 1.88062 -1.34399e-19)
(-0.00767627 2.41082 -2.07714e-19)
(-0.000751463 2.16319 0)
(0.00898036 2.46953 -1.38478e-20)
(0.0206523 2.3162 7.80626e-20)
(0.0174213 1.3926 1.18578e-20)
(0.0119533 1.38066 -1.89512e-19)
(0.0117606 1.38575 4.90387e-20)
(0.0151319 1.38474 6.52244e-20)
(0.0223669 1.41045 0)
(0.0132302 1.36769 0)
(0.0315546 1.27605 7.77193e-20)
(0.0208687 1.36607 -2.62978e-20)
(0.0103258 1.35841 0)
(0.0268941 1.27466 5.04166e-20)
(0.00370424 1.17248 -1.05083e-19)
(1.03983 0.0108761 0)
(1.04618 0.0071871 -7.87794e-20)
(1.03864 0.0203185 -5.66128e-19)
(1.04778 0.0191198 0)
(1.05111 0.0193138 0)
(1.03653 0.0108625 -6.64125e-21)
(1.03101 0.0106168 9.07646e-19)
(1.03201 0.0157949 1.10143e-18)
(1.02601 0.0197232 0)
(1.02328 0.0201814 0)
(1.03522 0.0239191 5.65128e-19)
(1.02634 0.0252805 0)
(1.02468 0.0253226 0)
(-0.0431563 2.02076 0)
(0.0148744 1.69807 -2.00487e-21)
(-0.0194346 1.78918 1.32116e-20)
(0.037537 1.36507 0)
(0.00234694 1.57484 5.32989e-20)
(0.0331599 1.48696 -3.43024e-20)
(0.0720252 1.42048 0)
(0.394479 1.67435 0)
(0.36767 1.29501 -2.3602e-19)
(0.306983 1.34162 0)
(0.424517 1.29488 7.26071e-20)
(0.467035 1.4505 0)
(0.448318 1.39587 -6.62775e-20)
(1.03461 2.68625 -1.7735e-20)
(0.964162 2.40865 -1.09801e-18)
(0.913731 2.18778 1.19639e-18)
(0.84786 2.37426 2.68018e-19)
(0.846179 2.49731 0)
(0.916334 2.49326 0)
(0.925807 2.37158 0)
(0.903749 2.35838 -1.04261e-18)
(0.69067 2.46646 -4.79201e-19)
(0.801405 2.45709 -1.15815e-19)
(0.811963 2.43029 8.83702e-20)
(0.693862 2.39187 0)
(0.797679 2.3869 0)
(0.756654 2.39977 -3.9643e-19)
(0.769018 2.48791 0)
(0.611409 1.09866 0)
(0.481644 0.928343 -5.98455e-19)
(0.548653 0.963828 -3.79092e-20)
(0.518454 1.05526 0)
(0.518721 1.00503 8.98571e-19)
(0.768629 0.880396 -1.6675e-19)
(0.779058 1.01422 0)
(0.752586 0.972599 2.52688e-19)
(0.640289 1.035 0)
(0.644443 0.944147 0)
(1.16396 2.76261 -2.93048e-19)
(1.14147 2.8264 -1.42997e-19)
(0.930953 2.34711 1.7863e-19)
(0.898889 2.32532 -9.54727e-20)
(1.12878 2.73496 0)
(1.0823 2.70496 1.30153e-19)
(1.08864 2.48636 -3.69249e-19)
(0.98304 2.23346 -3.033e-20)
(0.496808 1.35685 0)
(0.509481 1.07534 -1.64442e-19)
(0.561733 1.16322 0)
(0.861017 0.214446 0)
(0.794599 0.167145 0)
(0.744309 0.139122 0)
(0.855724 0.219407 -7.40125e-19)
(0.77092 0.210106 4.32085e-19)
(0.936144 0.0724572 -4.66108e-19)
(0.950116 0.117683 0)
(0.928917 0.127076 1.99917e-19)
(0.870199 0.103607 8.00826e-19)
(0.845915 0.0622386 -5.01302e-19)
(1.16145 3.36167 -6.74197e-19)
(1.20889 3.28101 0)
(1.16016 3.3896 -1.40471e-18)
(0.647941 3.55046 1.19064e-18)
(0.872651 3.11788 1.69576e-20)
(0.511954 0.854177 6.73232e-19)
(0.42966 0.84706 0)
(0.339894 0.497224 -1.68137e-19)
(0.447671 0.68336 -9.6588e-19)
(0.53427 0.468636 -2.33785e-19)
(0.508578 0.520575 2.64517e-19)
(0.659965 0.533248 5.80203e-19)
(0.688723 0.553029 0)
(0.640065 0.616499 0)
(0.598647 0.553774 0)
(0.971907 0.599423 1.39477e-19)
(0.892307 0.53587 -6.27278e-19)
(0.916002 0.569319 4.9103e-19)
(0.95248 0.504584 -4.87941e-19)
(1.05555 0.480339 0)
(1.06319 0.569775 -1.29128e-19)
(0.841947 0.385641 -9.83611e-19)
(0.845777 0.371245 1.57648e-18)
(0.793839 0.381824 7.6652e-19)
(0.790714 0.350997 -7.79174e-19)
(0.840627 0.306741 -6.10889e-19)
(0.794017 0.306119 7.50579e-19)
(1.02672 0.00542951 -5.75117e-19)
(1.02646 0.00566733 1.17456e-18)
(1.02904 -0.00043289 7.25304e-19)
(1.03332 0.000573774 -8.73308e-19)
(1.03311 0.00807737 0)
(1.03004 0.00865882 -1.4205e-18)
(0.0627809 1.64287 4.53545e-20)
(0.0436885 1.56706 0)
(0.0866044 1.69405 3.02169e-19)
(0.0943442 1.67398 -2.71906e-19)
(0.0914283 1.51748 1.19074e-19)
(0.0864215 1.49681 0)
(0.00435615 1.69086 0)
(-0.00874904 1.49613 -2.75623e-20)
(-0.00601212 1.43522 2.48185e-20)
(0.00263099 1.56936 2.03639e-21)
(-0.0100764 1.89042 -4.95961e-20)
(-0.0308943 1.94465 -7.7111e-20)
(0.496211 1.37365 -4.22417e-19)
(0.491402 1.37755 -4.83187e-19)
(0.446675 1.29092 -1.38644e-19)
(0.436781 1.29397 1.55448e-20)
(0.626029 1.29566 0)
(0.544169 1.38273 -2.43779e-21)
(0.560982 1.39093 2.37328e-21)
(0.456495 1.27741 1.33626e-19)
(0.510805 1.23214 0)
(0.563453 1.19804 0)
(0.657792 2.42604 7.03911e-19)
(0.670719 2.46304 1.43123e-18)
(0.716435 2.47508 -9.85465e-19)
(0.61571 2.45172 -2.24964e-19)
(0.56305 2.54327 3.26032e-19)
(0.512094 2.51667 -8.61124e-19)
(0.975438 2.37764 -6.70897e-19)
(1.01171 2.39209 0)
(0.921115 2.16632 -7.7067e-19)
(1.05242 2.68399 0)
(1.05452 2.67058 0)
(0.612818 2.27797 -1.72961e-19)
(1.04175 3.16464 7.71875e-20)
(0.913056 3.03488 2.30511e-20)
(0.282402 0.918089 0)
(0.323928 0.780047 -3.51076e-19)
(0.481047 0.734402 -1.41098e-18)
(0.392262 2.02537 0)
(0.467974 2.78677 -1.18048e-20)
(0.424846 2.55092 0)
(0.68202 0.681156 -9.73181e-19)
(0.76443 0.680959 1.33803e-18)
(0.784381 0.623044 8.42421e-19)
(0.664728 0.643351 1.25179e-19)
(0.721656 0.597301 -5.20997e-19)
(1.00367 2.76834 -5.86899e-20)
(1.04056 2.825 -2.49119e-19)
(0.641279 2.15573 7.60731e-19)
(0.596446 1.71975 -5.36935e-19)
(0.699419 1.91035 -5.03074e-19)
(0.989256 2.45132 -1.23403e-19)
(0.993982 2.44574 3.85988e-19)
(0.661178 1.85151 3.42386e-20)
(0.450905 1.33717 6.94377e-19)
)
;

boundaryField
{
    wall-4
    {
        type            noSlip;
    }
    velocity-inlet-5
    {
        type            fixedValue;
        value           uniform (1 0 0);
    }
    velocity-inlet-6
    {
        type            fixedValue;
        value           uniform (0 3 0);
    }
    pressure-outlet-7
    {
        type            zeroGradient;
    }
    wall-8
    {
        type            noSlip;
    }
    frontAndBackPlanes
    {
        type            empty;
    }
}


// ************************************************************************* //
