/*--------------------------------*- C++ -*----------------------------------*\
| =========                 |                                                 |
| \\      /  F ield         | OpenFOAM: The Open Source CFD Toolbox           |
|  \\    /   O peration     | Version:  2412                                  |
|   \\  /    A nd           | Website:  www.openfoam.com                      |
|    \\/     M anipulation  |                                                 |
\*---------------------------------------------------------------------------*/
FoamFile
{
    version     2.0;
    format      ascii;
    arch        "LSB;label=32;scalar=64";
    class       volScalarField;
    location    "0.1";
    object      p;
}
// * * * * * * * * * * * * * * * * * * * * * * * * * * * * * * * * * * * * * //

dimensions      [0 2 -2 0 0 0 0];

internalField   nonuniform List<scalar> 
918
(
1368.66
1334.27
11.6467
1367.51
10.2121
1331.35
766.588
952.746
1367.7
473.203
296.251
1128.11
1268.57
1104.27
922.835
111.494
1005.48
589.916
1325.15
120.66
944.071
1363.91
1360.3
1346.32
1072.81
1002.27
1182.22
43.1895
10.2495
22.4421
16.0792
25.3192
46.2976
1304.92
1324.16
1330.89
1225.62
802.436
788.063
808.488
745.133
723.009
956.535
960.977
919.021
949.08
946.293
1285.36
1362.27
1367.8
1358.05
1362.23
1367.33
480.065
491.444
510.222
454.962
437.057
315.402
313.74
331.234
278.761
261.161
1144.94
1137.68
1147.36
1118.54
1109.12
1324.29
1322.41
1329.54
1285.12
1302
1252.03
1235.63
1120.77
1137.14
1087.76
1071
912.078
900.751
934.262
946.036
10.0874
128.146
144.853
1011.77
1018.28
999.175
993.139
589.603
611.443
633.778
1315.1
1305.13
1367.59
1360.93
1339.42
1349.22
138.199
155.678
60.3946
103.119
85.4686
940.888
940.739
1335.79
1325.6
1099.69
1081.44
1090.57
1059.5
1064.83
1057.7
1032.96
1054.24
1020.36
1037.29
1162.83
1143.5
1201.61
1221.01
20.2134
10.0659
95.013
62.3514
78.5796
1215.64
1205.63
1225.85
1235.6
1245.59
810.567
819.015
794.012
785.738
828.946
848.169
656.032
700.87
678.476
715.153
965.541
970.637
867.301
902.649
885.065
935.263
950.545
1255.58
1275.42
1265.5
1315.42
1295.29
1305.35
1362.31
1362.44
1367.81
495.291
510
464.641
448.792
568.845
529.001
548.671
419.154
401.501
332.494
349.444
298.268
281.147
383.848
348.73
366.289
243.561
225.939
1134.72
1124.37
1155.15
1165.25
1186.44
1176.6
1157.04
1166.82
1201.98
1219.84
1219.23
1202.8
886.245
872.376
958.465
971.765
20.0485
20.1946
10.0607
26.4213
20.156
10.1744
212.792
195.716
161.701
178.656
1024.73
1031.35
601.449
612.86
577.544
564.944
1265.44
1275.35
1295.16
1285.26
208.317
173.158
190.738
943.604
940.561
942.055
1047.64
1035.03
1071.05
1081.95
1037.86
1051.04
1044.53
1050.12
1067.97
1238.54
1254.32
1240.24
1259.49
1287.67
1294.17
1275.78
1175.36
1195.62
1185.49
1255.53
1235.72
1245.62
1196.28
1215.98
1206.13
827.165
835.821
751.404
760.042
777.179
768.751
705.625
696.059
987.135
975.842
981.45
965.762
980.247
432.771
416.44
1092.85
1114.02
1103.44
1184.83
1153.52
1186.36
1169.94
1149.9
1165.31
844.152
862.068
853.285
1016.37
985.718
1000.73
264.026
229.939
246.966
624.049
634.911
524.487
552.029
538.507
1081.12
1093.76
1124.32
1086.27
1105.12
1128.96
1115.5
724.409
742.488
733.584
686.239
676.364
1022.13
994.705
1008.41
366.32
399.967
383.2
645.546
666.246
656.014
1335.39
1345.49
43.4383
61.3758
1349.07
1338.86
46.7602
62.1068
984.421
912.584
936.526
1295.08
1275.4
1346.21
490.699
496.156
313.732
332.72
263.922
1137.53
1155.31
1114.36
46.5349
128.032
138.289
610.481
1325.12
1315.3
1340.61
1343.52
1350.8
56.7771
53.7211
40.3842
120.879
86.1027
103.228
1215.68
1215.95
789.404
1340.47
1343.21
1350.82
1304.95
1324.79
1315.01
111.325
78.562
94.9514
1023.19
1072.09
985.459
985.238
970.52
969.534
957.503
1015.16
998.883
998.087
1017.87
964.905
947.966
922.292
903.967
951.971
966.544
1285.05
1275.36
1265.04
1255.65
1311.19
1300.6
1325.2
1306.94
1319.79
1327.86
472.241
454.598
508.788
528.038
512.335
525.048
481.488
465.137
400.341
296.108
278.879
331.281
348.659
333.799
281.052
315.487
298.257
246.612
230.07
314.456
286.78
309.745
1147.28
1156.93
1127.72
1118.38
1165.84
1175.32
1124.86
1145.15
1134.87
1083.24
1104.16
1093.21
52.727
57.7638
41.8979
144.769
161.578
105.023
83.6352
117.946
94.9577
80.7397
156.033
173.043
632.546
655.848
624.464
578.188
617.618
1284.81
1304.53
1294.49
1311.02
1325.55
1328.2
1320.26
1306.48
1225.93
1235.68
1205.94
1196.26
769.086
745.847
811.333
830.249
810.216
1037.69
1061.33
1036.64
1048.4
1055.67
941.379
958.825
959.745
947.512
922.274
944.394
933.833
935.367
922.122
1048.18
1060.93
1050.85
1031.31
1029.8
843.265
892.466
868.667
851.061
861.243
888.151
937.244
969.711
975.442
943.837
942.39
959.551
950.183
956.484
951.051
955.874
928.256
1010.87
982.534
996.172
998.871
941.417
944.971
978.528
1245.66
1265.3
1255.52
1225.13
1245.07
1235.12
1221.63
1228.64
1288.64
1281.8
1268.29
1281.63
436.294
418.901
513.291
589.457
548.227
569.153
540.213
527.727
507.718
596.174
587.766
547.733
582.914
555.392
595.692
565.208
585.632
417.969
417.411
449.933
428.501
449.598
433.088
323.568
337.835
358.927
335.612
349.354
382.774
365.374
271.102
287.181
261.465
243.583
381.632
371.136
362.253
407.702
137.416
148.898
171.239
247.885
218.248
240.564
1186.28
1166.8
1176.55
1102.01
1107.25
1098.17
1086.14
1205.88
1186.08
1196.22
1128.17
1141.82
1119.71
1126.7
1143.1
1150.2
1209.62
1203.1
1149.76
1163.11
1149.27
1142.73
1106.9
1101.48
1087.83
118.444
81.4475
101.654
107.693
75.6894
86.1693
212.797
184.3
206.957
178.787
195.903
131.348
127.317
636.142
619.845
724.071
678.561
701.132
635.659
645.712
590.855
595.904
611.562
613.685
601.881
539.74
565.891
552.637
724.532
686.313
1299.34
1298.53
1286.92
1280.21
1286.97
766.761
784.679
819.685
808.781
801.639
793.869
755.042
707.875
720.241
737.937
1030.41
1023.95
1046.12
1044.31
1050.88
1026.91
1008.89
1006.23
1021.66
1040.64
1031.55
1018.67
1022.4
1044.17
1038.96
1029.2
1059.5
1045.62
1038.64
1043.29
1125.4
1122.63
1131.46
1108.1
1110.83
1062.59
1077.98
1084.76
1077.12
1079.39
1068.35
1059.67
1064.46
1082.14
1093.92
1093.42
797.078
799.072
815.071
842.217
818.316
834.57
826.673
832.921
821.939
852.036
851.161
860.504
877.412
929.124
933.15
936.803
939.302
935.898
932.576
936.254
938.91
992.47
980.776
986.824
939.488
943.978
935.891
940.893
894.853
895.688
882.409
897.106
892.95
882.972
927.987
914.043
912.146
925.393
1004.28
1007.18
1014.56
988.412
979.586
988.768
983.457
990.747
998.725
997.81
966.348
951.642
960.778
961.78
955.516
959.003
1244.04
1257.19
1263.53
1257.61
1243.64
1246.68
1240.25
1247.51
1260.61
1267.12
1260.48
366.41
372.434
401.101
383.751
453.366
471.067
493.71
494.853
394.636
411.932
435.304
429.213
405.663
393.507
465.623
482.215
497.707
493.562
557.549
542.513
560.428
568.987
535.823
520.483
524.834
377.533
357.442
354.514
379.789
392.431
291.292
268.093
259.212
283.031
303.077
235.489
190.745
197.723
221.016
225.737
208.152
1200.47
1187.07
1173.98
1167.53
1173.4
1187.49
1200.62
1184.81
1191.44
1184.32
1170.96
1164.7
1171.42
177.722
151.083
155.319
185.675
165.85
151.719
161.442
664.186
637.963
637.84
662.766
679.859
660.471
742.648
734.109
742.471
696.268
699.479
712.249
715.162
705.657
669.254
690.579
690.937
656.353
676.523
666.347
677.611
822.809
849.267
858.935
817.427
832.016
868.905
840.675
856.364
840.855
855.451
796.79
801.199
789.792
774.247
786.185
775.079
785.384
777.034
751.67
775.705
770.91
1014.84
1017.27
1011.57
1006.54
1005.03
1068.1
1060.83
1054.74
1057.12
1064.12
868.674
863.118
881.993
895.952
889.827
877.782
862.106
911.355
907.161
924.295
926.937
930.676
930.741
917.252
924.348
938.886
949.784
939.766
959.647
961.88
951.048
969.041
977.467
966.771
970.999
983.061
978.931
1233.34
1224.18
1233.72
1224.49
1208.95
1209
435.021
430.555
462.566
475.316
470.643
453.623
231.251
225.326
199.347
188.694
196.772
214.062
726.013
705.453
681.03
683.009
743.29
702.108
723.798
700.698
723.406
744.77
657.574
654.895
665.543
640.774
632.972
627.745
751.337
768.594
759.952
765.763
754.104
874.234
865.529
874.9
913.933
904.353
887.275
883.914
896.11
909.569
907.775
908.278
919.662
917.256
924.014
856.117
843.9
862.748
855.537
816.492
834.658
821.084
840.089
829.724
)
;

boundaryField
{
    wall-4
    {
        type            zeroGradient;
    }
    velocity-inlet-5
    {
        type            zeroGradient;
    }
    velocity-inlet-6
    {
        type            zeroGradient;
    }
    pressure-outlet-7
    {
        type            fixedValue;
        value           uniform 0;
    }
    wall-8
    {
        type            zeroGradient;
    }
    frontAndBackPlanes
    {
        type            empty;
    }
}


// ************************************************************************* //
