/*--------------------------------*- C++ -*----------------------------------*\
| =========                 |                                                 |
| \\      /  F ield         | OpenFOAM: The Open Source CFD Toolbox           |
|  \\    /   O peration     | Version:  2412                                  |
|   \\  /    A nd           | Website:  www.openfoam.com                      |
|    \\/     M anipulation  |                                                 |
\*---------------------------------------------------------------------------*/
FoamFile
{
    version     2.0;
    format      ascii;
    arch        "LSB;label=32;scalar=64";
    class       surfaceScalarField;
    location    "0.1";
    object      phi;
}
// * * * * * * * * * * * * * * * * * * * * * * * * * * * * * * * * * * * * * //

dimensions      [0 3 -1 0 0 0 0];

oriented        oriented;

internalField   nonuniform List<scalar> 
1300
(
3.75095
5.62643
-6.5435
3.75095
-6.39716
5.62643
-6.50966
6.50966
-1.24715
1.24715
1.8694
1.88155
-5.91967
5.91967
-5.67566
5.67565
-3.10602
3.10602
-5.35614
5.35614
-5.34524
5.34524
3.58566
-3.58565
-5.37831
5.37831
-2.11673
2.11673
-6.54279
6.54279
3.26128
-3.26127
-5.69203
5.69203
0.996972
-0.996972
-0.333251
4.0842
3.41769
3.41769
-2.80067
2.80067
-5.8552
5.8552
6.29694
-6.29694
9.96585
-9.96585
-3.42235
-3.23666
1.22407
-7.89745
-5.17311
-5.17311
-8.45681
8.45681
-2.83036
2.79607
3.2385
-3.23849
-2.72982
2.72982
-6.19918
-0.310484
-6.19919
6.71347
-0.203809
6.71346
-1.50873
0.261587
-1.50873
4.94293
-4.94294
0.916097
0.331055
0.916091
3.22402
-3.22402
-1.90253
3.77192
1.84842
-1.98742
6.0716
-1.76354
3.64507
-4.97537
4.97536
-6.09405
0.174391
-6.09404
5.81004
0.109635
5.81005
-5.55617
5.55617
-5.67754
0.0018788
-5.67754
5.71138
-0.0357358
5.71138
3.31459
-3.31459
-3.14091
0.034881
-3.14091
3.05842
0.0475923
3.05842
0.161131
5.4653
-5.78757
8.58364
-5.46531
0.109172
5.31045
0.0456993
5.31046
-5.30098
-0.0442734
-5.30099
5.42463
-0.0793868
5.42462
3.54049
0.0451649
3.54049
-3.91815
0.332484
-3.91815
-3.28308
-3.27061
-5.44717
0.0688064
-5.44716
-2.17647
0.0597385
-2.17646
2.02276
0.093979
2.02275
-4.00167
4.00165
-6.76091
0.218123
-6.76091
3.23426
0.027019
3.23426
1.92721
1.82374
5.67816
-5.67816
2.41686
-5.67251
-0.0195089
-5.67251
-5.72742
-4.23843
5.7274
-0.0353651
0.0442874
0.952681
0.0442862
3.30496
0.112727
3.30496
2.9614
0.097022
-2.9614
0.160713
3.74921
-3.74921
2.19559
0.605079
2.19559
-5.47687
5.47687
5.48466
-0.0600367
-5.48464
-0.370548
6.25267
0.0442871
6.25267
-6.2731
-0.0238279
-6.27311
3.29658
-6.53324
-3.24313
5.30122
0.0770859
-5.30124
0.128127
3.24755
-0.00905101
3.24754
-3.20325
3.20325
-3.24177
0.0032915
-3.24177
-2.73183
0.00200984
-2.73186
2.77908
-0.049273
2.77908
-5.83088
-0.368307
-5.83087
-6.80011
0.0391981
6.80012
-0.0866574
3.12069
-3.12068
-1.72749
0.21876
-1.72748
-5.3586
-0.472275
5.35862
-0.415688
-4.62332
-0.319629
-4.62331
-3.21988
-0.0218964
3.21987
0.00413287
3.26597
0.0389769
-3.26597
0.0419495
-1.89655
3.72029
-1.8544
3.70283
-4.73969
-0.235683
-4.73969
5.17322
-0.197853
5.17321
6.38274
0.160045
-6.38275
0.28871
5.72856
0.0814931
5.72858
-5.49128
-0.0649019
-5.4913
5.5588
-0.0026343
5.55881
5.69813
0.0304546
-5.69811
0.0205713
5.71865
-0.00726711
5.71865
3.35922
-0.0446097
3.35922
-3.27883
-0.0357624
-3.27883
3.19202
-3.19202
3.17388
0.0181526
-3.17389
0.0329777
-10.9115
10.8876
0.010773
-10.9223
5.32121
5.32121
3.31321
0.227274
3.3132
-4.41783
0.499682
-4.41783
3.24454
-6.48767
3.29182
-6.57489
3.36729
-11.2648
3.24314
-6.51374
5.55558
-5.55558
5.52164
0.0339214
-5.52166
0.0744962
-2.20263
0.0261643
-2.20262
-3.77884
-0.222779
-3.77884
4.25851
-0.25686
4.25852
-3.21697
3.21697
-3.21441
-0.00255409
3.21441
0.0198586
5.70469
0.0139568
-5.70468
0.0321727
0.511323
0.40476
-0.511333
0.555619
3.91699
-0.167773
3.91699
-3.53751
-0.211698
-3.5375
-2.20861
0.00598904
2.2086
-0.0130196
-5.86888
0.392019
-5.86889
-10.9998
0.0775022
-10.954
-6.1956
-6.1956
2.26123
10.8449
-3.28812
0.00929062
3.28812
-0.0405776
3.21371
0.00326626
-3.21372
0.0104751
-3.19671
0.00468691
3.1967
0.00656044
-2.79053
0.0586717
-2.79053
-2.90724
2.90724
-2.83387
-0.0733802
2.83386
-0.0547804
3.22596
-0.105271
3.22597
1.89699
0.125764
-1.89698
0.169498
-4.38961
-0.233706
-4.38961
5.32522
-0.152003
5.32521
-3.43416
-0.103341
3.43416
-0.074941
-0.0052602
10.8929
-5.31596
0.0149642
5.31595
-10.9372
10.9522
-2.93839
0.147854
2.93838
0.374824
4.97249
0.504377
-4.97248
0.554646
5.53394
0.0248774
-5.53393
-0.0216566
-3.59033
-0.188501
-3.59033
-4.5198
-0.219888
4.51978
-0.261261
-10.9042
-0.308104
11.2123
-10.9835
6.177
0.0756618
-6.17699
11.0278
-2.99914
-0.121535
2.99915
-0.0919058
3.3303
-0.104333
3.3303
4.15491
-0.237915
-4.1549
-0.23471
-5.4618
-0.0294682
5.46181
-0.136598
-3.45228
-0.138052
3.45229
-0.121991
-4.18126
4.29398
1.89031
-3.30086
-3.23235
-7.53927
1.87927
1.84101
4.29615
-6.91932
-4.34544
-6.79118
6.25499
-5.70033
-6.09885
6.14404
7.75748
-8.07712
-5.67185
5.69174
6.34037
-6.33625
1.86101
1.91091
10.613
-10.4387
-9.93619
9.70049
9.97449
-9.97266
10.382
-10.447
-11.8666
11.8915
-5.5512
5.58608
-6.43014
6.39437
-6.54632
6.47137
-3.3312
-3.24368
8.78122
-8.71246
11.4848
-11.5043
-11.3307
11.5488
3.36087
0.933108
3.39984
-1.84197
3.70298
-1.80308
3.6934
3.22247
-6.55366
3.2652
-6.49755
5.87756
5.6072
-5.84222
-1.69702
-5.76543
5.75636
-5.68985
5.69641
11.087
-11.3975
-1.8486
3.75951
-1.85421
3.69522
-3.37147
-2.30036
3.34445
0.951702
5.42366
3.35761
-5.50073
-1.29042
-7.52264
7.28475
-7.67078
7.45908
0.903344
5.07437
-5.97771
6.7585
-2.03164
7.106
4.22335
4.72304
5.46674
-4.96236
0.233606
-6.21131
-6.58186
-2.11456
2.33332
1.89783
-1.56678
6.61152
1.14594
6.19581
-5.54762
-2.52951
-5.78132
3.7709
1.92083
3.76835
4.0335
2.30686
4.0116
2.97667
-3.06355
0.0868809
-3.04252
6.01919
0.695951
-5.34287
-4.39117
6.76039
3.85266
6.87
-7.27748
-3.16119
-6.98878
-5.96271
-3.97348
-6.18259
6.36428
3.33621
6.16642
-7.72551
7.58892
6.64714
3.32736
6.61137
-6.67752
-3.29516
-6.65696
10.518
-2.87481
-7.64319
-6.74936
-5.11728
6.75199
3.63004
7.37872
4.51269
7.35708
3.43276
7.08522
-7.0628
1.94553
-3.73198
-1.81921
-3.699
3.61495
1.97113
3.66253
-4.08553
-2.34461
-4.07624
-4.07659
-2.46972
4.1212
2.27317
-4.18427
-3.4865
4.28761
2.18376
3.00061
-7.34605
3.51312
-6.75678
-6.13464
-2.57782
-6.06015
4.1389
2.60022
-6.7391
-2.41475
10.6093
-5.00214
8.91227
-7.21535
-4.28894
-7.18316
-8.78125
-2.54943
-8.74204
-5.09148
4.90302
-5.45339
5.19655
10.2182
-5.6732
-4.54495
-3.93742
-2.39882
3.89548
-0.495644
-3.66715
3.75403
0.0358249
3.72922
4.66232
4.16668
-3.76713
-1.92274
-3.75664
3.7503
1.94613
3.75501
8.79214
2.29483
8.58834
-7.59387
-3.80358
-7.96218
5.26842
-5.26644
2.85409
-2.84811
5.05239
2.4067
-4.88462
-2.63803
5.77026
-2.94422
-2.82604
-9.40298
6.25418
3.14879
-2.29696
4.46156
3.46457
-3.95867
-2.14021
3.6262
1.09685
7.35103
5.21085
-5.10861
5.50062
6.10364
6.0436
-0.538264
3.53794
-3.39007
6.51634
-1.12012
-5.3962
5.9078
-6.38007
-2.05438
-6.27456
4.22019
-0.184272
0.739376
0.213283
-1.87145
-0.24311
-1.70197
0.728245
1.16959
1.133
1.05371
1.27962
-2.33207
0.0255777
2.30649
-1.27836
-1.5412
-4.13626
-0.113221
4.24948
5.59537
1.68938
-5.36067
-0.420653
2.5431
-2.44912
-1.75822
-2.37805
1.03449
-2.79271
-3.06841
-2.15064
5.21905
-3.24783
-0.508804
3.24456
0.523792
-3.66672
-2.09873
3.66345
0.348158
-2.95137
6.04067
-3.0893
-4.87409
2.53298
3.48621
4.45382
-4.71281
2.3976
2.31522
-1.22658
5.77149
1.09852
5.85295
-9.04155
5.88036
7.79981
3.74899
-7.95983
0.971056
-8.07048
9.35737
-8.21313
-1.14424
4.85487
4.50249
5.11755
5.10061
-3.64469
8.76223
-1.16572
-7.04738
9.23622
-5.48723
5.61684
-11.1041
-10.7175
3.67007
-6.59941
8.41248
-1.81307
-2.4711
-5.2544
9.07049
-0.759997
-8.31049
5.4064
-5.07966
-5.32745
10.4071
-7.95448
8.62262
-2.45243
-6.17019
-6.586
-3.86097
6.61544
0.973469
-9.76959
11.7151
-2.68437
5.82413
0.787243
5.81688
3.73979
-5.85803
2.11826
4.21468
-6.66712
2.43082
-8.28881
-4.75903
9.43546
-4.67643
-7.33684
-6.47706
-0.859774
2.01784
9.69724
-6.5305
5.14626
1.38424
3.21106
0.543958
-3.22921
-0.46978
0.285872
4.40772
-4.69359
3.94841
4.04542
3.28355
1.12418
3.77301
1.98334
-3.73244
-0.343802
-3.97683
1.50712
-1.70365
-3.42068
4.9278
-3.90995
0.489296
-2.59086
-3.40212
5.993
-4.41007
2.93862
3.10204
4.88474
-4.70386
1.30174
-2.33219
-2.37167
2.60821
-4.31185
1.88912
3.03868
4.07289
0.586394
4.76194
4.67353
-7.36213
0.605364
8.03115
-6.74072
1.61499
5.74208
-6.76123
0.284172
-5.77599
1.19471
-6.19682
-5.54441
6.16749
-8.71695
-4.93654
8.02083
0.567535
-7.93419
-0.807851
-3.55973
-1.53175
-3.69778
-1.78565
-3.66771
-5.43033
-1.01251
-4.41781
3.89052
-4.06079
-2.1218
4.32205
0.874501
-4.38834
4.26681
-4.2909
4.18657
0.134314
3.61971
4.30099
1.90217
-2.39313
4.2953
-6.74316
9.03799
-10.8147
4.07148
4.61674
-8.42033
-6.19791
3.19677
2.07165
3.14749
5.77363
-6.88615
1.11252
-6.35224
7.49925
-1.14701
-9.62221
3.26998
-3.84854
2.54751
0.306581
2.57368
0.62016
2.28935
-2.90951
-2.22796
-2.24098
-2.44223
-3.24179
5.68403
0.899744
-3.18239
2.28264
-3.16903
4.06877
-0.198974
-2.98342
4.8439
-2.55457
5.15049
-3.36797
1.78248
3.21569
5.42568
-2.20997
4.15221
-1.74551
1.72759
-3.93757
-1.51418
-2.90918
4.88032
-3.08383
3.57313
-0.186718
3.75985
-3.78956
0.845344
-0.506015
3.53941
3.70012
4.06474
-2.94056
2.69886
-4.44437
-1.23869
-3.85797
-0.819296
-0.815897
-5.16368
5.97957
4.71855
-5.53444
-2.67669
5.40538
-2.72867
4.34652
-2.88513
-1.46138
-2.61411
-2.65233
2.55542
0.982517
5.32903
0.29918
-3.1843
-3.0909
-2.71607
4.80945
1.70688
-1.63792
4.78669
-1.82665
2.56604
0.954051
0.178952
1.00521
-0.0511799
-0.947858
1.95308
-0.734568
1.78712
0.755973
-1.91288
0.21091
-1.98768
3.02216
0.318817
-1.4884
1.43723
2.5093
-3.62944
4.97342
-1.58982
-3.3836
7.48274
1.97105
-3.56088
4.3035
-4.48779
3.00033
-3.11355
-0.560552
-5.04834
-3.90242
-2.25944
4.54207
-3.42459
5.11397
1.47365
-4.6933
6.16695
-3.43191
1.28125
-2.60363
3.3596
-0.636863
-1.96678
2.34738
2.87164
-2.88492
0.50687
-0.537551
1.90478
-2.44233
-0.887939
-2.1663
-4.52907
4.87723
-2.07309
4.4707
2.22222
-1.90995
6.38065
1.74118
-3.65112
-3.13292
-3.64172
-1.3359
3.11792
-0.991894
-5.66505
-7.16211
5.6346
0.218345
-9.09857
10.0815
-0.982892
-5.24591
-0.634463
5.4893
-7.42508
0.757947
-4.99426
5.08719
6.18573
6.40413
-8.1599
-0.1506
-4.82369
1.24363
-6.06732
5.74611
-2.77119
6.44123
-6.86557
4.74377
-5.99104
5.29699
-0.77028
5.52522
-3.40698
2.11799
-5.97897
-5.0055
6.85247
-3.52514
7.63971
-4.19755
11.8373
-6.88193
6.71596
5.1213
-1.33746
-5.84571
-6.70108
5.3636
0.0148782
5.83176
4.87383
-2.89049
4.53004
2.12642
-4.45862
-2.18543
-6.28144
1.82282
-3.17938
-1.79554
3.61835
3.08918
3.63315
1.24668
-3.16339
6.50907
-7.3688
-1.83263
-3.71178
6.55344
-1.18985
3.9323
-7.6441
-2.26451
5.14798
-0.512252
-4.63573
0.525198
-5.46173
2.50476
-7.96649
6.21216
-7.02
1.32446
-5.17299
-3.06388
-3.15579
-1.221
-3.06991
-4.36163
3.14064
-1.09165
3.17517
-5.52477
5.01252
-1.9745
5.11515
-3.16388
-0.533909
3.28585
0.900694
6.01584
-0.0019644
-6.19595
-1.89607
5.63395
-3.73788
2.91337
-5.16566
0.468277
3.56706
3.91567
-7.78724
-0.633084
-6.82904
-2.2744
4.34605
3.13098
7.84953
0.963379
4.85382
-0.50776
5.81719
2.63974
2.58496
-4.01585
5.12837
1.96371
6.0352
-0.831162
2.61364
1.74251
1.80225
0.646874
2.31428
1.38583
3.15961
0.250087
-1.99089
2.57201
-5.28808
-0.612303
-5.06082
1.08324
3.65407
-2.57084
4.76843
-3.06153
1.03055
2.45813
-3.27688
0.818748
-2.93807
-0.710823
1.24226
-0.68777
2.12499
2.3344
-3.36723
0.429165
-0.14215
-3.76026
3.25572
-2.74885
0.122793
6.28978
-2.40228
-0.0400514
-1.12102
-2.20634
-2.44947
2.23855
6.10374
0.27692
3.01445
5.15415
3.05544
0.164932
4.12056
-5.93362
-4.16827
-6.08424
-0.33813
5.15117
1.84913
7.84811
6.97039
5.78055
-1.86355
-9.23236
7.54329
-2.41494
6.39629
-1.76059
-6.20589
6.27561
2.76239
-6.84315
-0.176821
-6.38268
-8.79762
-0.448732
5.46126
-5.56713
5.03321
3.50148
0.916314
-2.6277
-0.52809
2.70108
-0.116118
5.70108
-0.90961
-5.18395
6.09357
-2.74445
2.13215
3.26526
1.52143
4.08402
1.02248
-4.16146
-6.73231
-1.24014
-2.38931
-4.62374
-0.374245
-1.96013
3.81642
-1.68427
2.35504
4.40929
5.43981
-1.44313
-4.09131
4.1718
-1.81676
3.62304
)
;

boundaryField
{
    wall-4
    {
        type            calculated;
        value           uniform 0;
    }
    velocity-inlet-5
    {
        type            calculated;
        value           uniform -3.75095;
    }
    velocity-inlet-6
    {
        type            calculated;
        value           uniform -5.62643;
    }
    pressure-outlet-7
    {
        type            calculated;
        value           nonuniform List<scalar> 8(6.5435 6.39716 6.65899 6.67338 6.55369 6.53968 6.53636 6.6104);
    }
    wall-8
    {
        type            calculated;
        value           uniform 0;
    }
    frontAndBackPlanes
    {
        type            empty;
    }
}


// ************************************************************************* //
