/*--------------------------------*- C++ -*----------------------------------*\
| =========                 |                                                 |
| \\      /  F ield         | OpenFOAM: The Open Source CFD Toolbox           |
|  \\    /   O peration     | Version:  2412                                  |
|   \\  /    A nd           | Website:  www.openfoam.com                      |
|    \\/     M anipulation  |                                                 |
\*---------------------------------------------------------------------------*/
FoamFile
{
    version     2.0;
    format      ascii;
    arch        "LSB;label=32;scalar=64";
    class       volVectorField;
    location    "0.1";
    object      U;
}
// * * * * * * * * * * * * * * * * * * * * * * * * * * * * * * * * * * * * * //

dimensions      [0 1 -1 0 0 0 0];

internalField   nonuniform List<vector> 
918
(
(0.454191 -0.351675 0)
(0.800654 2.38861 0)
(-0.455109 1.61877 0)
(0.378994 0.27686 0)
(0.65251 1.86597 -5.51636e-17)
(-0.635299 2.07528 -6.60374e-15)
(1.11553 1.84431 -1.40731e-15)
(0.424283 0.243229 -4.24382e-17)
(0.431983 0.00185851 0)
(9.29905e-05 1.82049 0)
(1.40347e-05 1.74544 0)
(0.9552 3.5765e-05 0)
(0.00160667 3.01235 0)
(-0.00015632 3.00651 0)
(-0.0215246 2.49319 -1.99948e-15)
(-0.00266715 1.73606 -2.24407e-16)
(0.688205 0.171545 3.1338e-15)
(0.113803 2.11949 -1.17395e-15)
(0.976471 0.0153819 0)
(4.07971e-05 1.75053 0)
(-0.429713 -0.342857 -1.90917e-15)
(0.257398 -0.0832267 0)
(0.877772 0.147732 0)
(1.06676 0.00916199 0)
(0.871584 0.00626279 0)
(0.00165521 3.29741 0)
(0.00024422 2.98235 2.43277e-15)
(-0.699097 1.88281 0)
(-0.0251367 1.74434 0)
(-0.0810514 1.81513 0)
(-0.0399296 1.51662 0)
(-0.345461 1.53297 4.22323e-17)
(-0.00687912 1.73848 0)
(-1.53018 2.90215 -2.5432e-19)
(-0.501218 2.59141 5.36753e-15)
(-0.0606494 2.69802 0)
(0.995944 -3.19608e-06 0)
(0.861757 1.33715 1.0938e-15)
(1.07726 1.71855 2.7125e-15)
(1.25992 1.60584 -2.20786e-15)
(0.932707 1.90204 3.18315e-16)
(0.915026 2.03184 -1.67261e-15)
(0.439635 0.314186 4.14391e-17)
(0.499072 0.25305 0)
(1.40269 0.844911 0)
(0.332359 0.317725 1.85582e-16)
(0.322703 0.206765 -1.92288e-16)
(0.991479 -3.11376e-05 0)
(0.985954 0.00509526 0)
(0.432001 0.00833256 0)
(1.01109 -0.205759 0)
(0.95214 0.0181974 0)
(0.443354 0.054334 0)
(0.00307654 1.63871 -1.8735e-15)
(0.0464876 1.85104 0)
(9.66866e-05 1.87413 0)
(0.0291435 1.8072 0)
(3.51135e-05 1.78683 0)
(0.000524873 1.72865 0)
(0.000491533 1.74929 0)
(-1.43822e-05 1.74602 0)
(-0.00941629 1.7544 0)
(-2.95962e-05 1.75649 0)
(1.01937 -7.77519e-06 0)
(0.962528 0.00929882 0)
(0.965929 7.27749e-06 0)
(0.949771 0.0126205 0)
(0.940585 7.45357e-05 0)
(-0.643014 2.34091 2.44202e-15)
(0.926097 2.3937 0)
(0.158745 1.53994 0)
(0.653866 3.06477 2.78429e-20)
(-0.0380437 3.14009 -3.7171e-15)
(-0.148373 3.01992 0)
(-0.0004426 2.98699 0)
(0.352182 3.01401 6.07565e-21)
(0.00171689 2.98176 0)
(-0.422345 3.04921 0)
(-5.14719e-05 3.05187 0)
(0.0841855 2.62091 0)
(-0.176436 2.96625 0)
(-0.0722703 2.51988 -1.84577e-15)
(-0.0206817 2.49957 0)
(0.0019196 1.74723 0)
(-0.00687705 1.73831 2.2157e-16)
(-0.00206325 1.73365 -2.79157e-16)
(0.712511 0.177964 -1.09483e-15)
(0.721543 0.136444 -1.07396e-15)
(0.674146 0.215509 -3.25442e-15)
(0.650339 0.202698 -2.08011e-15)
(0.14069 1.42192 0)
(0.321565 2.08954 1.06363e-15)
(0.402472 2.19599 -1.71642e-15)
(1.00073 0.00713807 0)
(0.994666 -1.47091e-05 0)
(0.419282 0.00596367 0)
(1.03922 0.0748497 0)
(0.941752 0.0974436 -1.37395e-14)
(1.06687 0.397739 1.05864e-14)
(-0.0051659 1.75105 0)
(-2.47541e-05 1.74446 0)
(-0.170288 1.65342 0)
(-0.00930131 1.75931 0)
(-0.0269994 1.7149 0)
(-0.479881 0.187903 5.93262e-16)
(-0.0231835 -0.0141831 0)
(1.03582 -0.030007 0)
(1.01642 -3.90775e-05 0)
(0.927559 0.0838659 0)
(0.887804 0.235634 0)
(0.910735 0.000299562 0)
(1.1667 -0.0077674 0)
(0.851165 0.0904431 0)
(0.797222 0.0260377 5.17833e-15)
(-0.0145111 2.86757 2.51498e-15)
(0.325282 3.08801 0)
(0.179528 3.20963 0)
(0.00121065 3.08587 0)
(0.158674 2.99134 2.37711e-15)
(-0.00299094 2.98078 0)
(0.0236884 2.99714 -7.25113e-15)
(0.00341888 2.9903 2.46459e-15)
(0.00932602 1.74183 0)
(0.00823844 1.74342 0)
(-0.00518748 1.74184 -5.6643e-18)
(-0.0185158 1.74098 0)
(-0.00311681 1.74089 0)
(0.999356 0.00246398 0)
(0.99873 1.88857e-05 0)
(0.985101 -6.6421e-06 0)
(0.998407 -0.0257081 0)
(0.997008 -1.6429e-05 0)
(0.877918 1.41306 -1.35059e-15)
(0.956774 1.38573 0)
(0.810483 1.36409 1.49857e-16)
(0.787353 1.31642 0)
(1.18513 1.49534 6.94119e-16)
(1.35123 1.34791 -1.51601e-15)
(0.535038 2.10098 0)
(0.747726 2.03304 0)
(0.671718 2.15289 0)
(0.528834 1.30257 -6.62428e-16)
(0.517806 0.303401 0)
(0.560422 0.247192 5.66248e-16)
(1.24899 1.26279 0)
(1.29289 1.01859 0)
(1.39083 1.08622 1.6048e-15)
(1.3182 0.785206 0)
(1.40085 0.628681 1.36112e-17)
(0.995544 0.0058768 0)
(0.992869 -0.00106931 0)
(0.990214 -1.47772e-05 0)
(1.01238 -0.0103612 0)
(0.999913 -0.0456989 0)
(1.00444 -5.57364e-05 0)
(0.972177 -0.0112804 0)
(0.967527 0.000965568 0)
(0.431944 -0.00650183 0)
(0.0522126 1.62042 9.73109e-16)
(0.00319131 1.59315 0)
(0.040131 1.66019 9.04659e-16)
(0.00263418 1.67418 -1.69071e-15)
(0.0724333 2.01793 9.82246e-16)
(0.076796 1.92228 0)
(-0.0127304 1.98531 0)
(0.0217004 1.77778 0)
(3.46421e-05 1.76177 0)
(0.0133448 1.72607 -9.10499e-18)
(0.00112172 1.71718 0)
(-0.000966609 1.73036 -5.03994e-16)
(9.91711e-05 1.72622 9.75264e-16)
(0.00827639 1.76053 0)
(0.00555801 1.75266 0)
(2.12896e-05 1.75241 0)
(-0.00188497 1.76106 0)
(9.06431e-06 1.75871 0)
(1.02819 0.0118848 0)
(1.0331 6.13319e-05 0)
(1.01591 0.00950402 0)
(1.00835 2.37681e-05 0)
(0.981687 8.66458e-07 0)
(0.980802 0.00488139 0)
(0.972929 0.0088558 0)
(0.976108 1.97308e-05 0)
(-0.0278684 2.93588 -2.20815e-17)
(0.022922 3.07308 0)
(-0.0432204 3.01024 0)
(0.00018954 2.99318 0)
(0.328985 2.46355 0)
(1.9084 2.02007 -5.28626e-16)
(-0.154943 2.57987 0)
(-0.0190922 2.61031 0)
(0.000165688 1.72973 0)
(-0.00135932 1.75284 0)
(-0.00729157 1.74259 0)
(0.243961 1.8767 6.53834e-17)
(-0.00421359 1.7353 0)
(-0.0444604 1.77697 0)
(-0.000972712 1.73548 3.00546e-17)
(0.010305 1.73991 3.5617e-16)
(-0.0100112 1.73922 2.85546e-16)
(-0.00156757 1.73834 0)
(0.740055 0.17283 1.71937e-15)
(0.751709 0.0983204 -1.68739e-15)
(0.21794 1.42161 0)
(0.209593 1.37924 -3.8651e-16)
(0.155669 1.4711 -1.26957e-15)
(0.0632989 1.47676 1.26963e-15)
(0.98936 -4.179e-06 0)
(0.990886 -0.000757906 0)
(0.993609 0.00527453 0)
(0.98853 1.96938e-05 0)
(0.0105696 1.76002 0)
(0.00866543 1.75289 0)
(3.20127e-05 1.75443 0)
(0.188326 0.29421 1.69876e-15)
(-0.0362242 0.250856 -1.98333e-15)
(0.186877 0.133003 0)
(1.19444 0.0968484 2.21968e-16)
(1.26917 0.0677163 0)
(1.12271 0.0563791 0)
(1.08793 0.000115771 0)
(0.777621 0.0975009 0)
(0.809667 0.0580238 -8.26128e-15)
(0.781839 0.0581883 3.04971e-15)
(-0.226114 2.92427 2.34075e-15)
(-0.0122451 2.94131 4.10775e-17)
(0.0261468 2.91239 -4.58643e-17)
(0.0725763 3.30346 1.74076e-15)
(-0.111797 3.01018 8.05756e-17)
(0.0179307 3.0289 -3.25198e-19)
(0.14679 2.6146 -1.44582e-15)
(0.366849 2.77892 1.03428e-15)
(-0.539168 3.20534 -1.74066e-15)
(1.01177 -0.0025183 0)
(1.00694 0.0357521 0)
(1.01127 3.37697e-05 0)
(0.990781 0.000818686 0)
(0.988668 0.00281259 0)
(0.988359 1.08184e-05 0)
(0.984318 0.00122326 0)
(0.986101 0.00174534 0)
(0.983088 1.59399e-05 0)
(0.950846 1.50525 -1.54424e-15)
(1.0789 1.46824 0)
(0.649588 1.2908 2.11332e-16)
(0.675179 1.3248 1.73872e-15)
(0.736596 1.34308 -1.03964e-15)
(0.715741 1.29903 2.05615e-15)
(0.502936 1.32746 1.92801e-15)
(0.466103 1.30797 5.80611e-16)
(0.631404 0.247726 2.19124e-15)
(0.581382 0.277685 5.69835e-16)
(0.609115 0.22889 1.0656e-15)
(1.32834 0.571369 -1.66526e-15)
(1.39022 0.432142 -1.80573e-15)
(0.0282809 1.68969 8.19226e-16)
(0.00220171 1.69838 0)
(1.07406 0.0275212 0)
(1.04671 0.0199603 0)
(1.05615 1.41557e-05 0)
(-0.0736478 3.07182 0)
(0.250878 3.00606 3.30677e-15)
(0.10596 3.01184 0)
(0.00110582 2.99023 -3.29204e-15)
(-0.170828 3.05943 7.93337e-16)
(-0.100318 2.9298 0)
(1.05271 1.65472 4.44014e-16)
(1.16472 1.96093 -1.50481e-15)
(1.2499 1.60509 1.39948e-15)
(-0.170682 2.82976 -2.33446e-15)
(-0.177773 2.70425 0)
(-0.016915 2.75039 0)
(-0.00564861 1.72663 -2.79305e-17)
(0.0100283 1.73113 -8.07325e-16)
(-0.000524586 1.72078 8.58997e-16)
(0.277361 1.38171 1.27026e-15)
(0.274618 1.34534 -8.51097e-16)
(0.0477245 1.57771 1.10747e-15)
(0.0924804 1.52773 -1.21729e-15)
(0.00149444 1.54471 3.39017e-17)
(0.121278 3.01705 -5.16746e-15)
(0.192974 3.06638 6.01098e-15)
(0.303293 2.99794 2.31814e-15)
(-0.358977 2.99188 -2.35634e-15)
(-0.00676742 3.00063 2.35534e-15)
(-0.150516 2.90449 -6.00158e-15)
(-0.259947 3.13438 -2.37507e-17)
(0.572011 1.31603 0)
(0.619475 1.31556 -3.48123e-15)
(0.587296 1.2904 1.51416e-15)
(0.442365 1.33313 1.7148e-15)
(0.402413 1.31496 -2.66958e-15)
(1.26443 0.222645 8.72859e-16)
(1.30258 0.422289 0)
(1.3508 0.246477 -9.20785e-16)
(-0.0509533 1.7224 -1.01496e-17)
(0.0271435 1.7137 0)
(0.00152428 1.72218 0)
(0.324492 1.35735 -4.67138e-16)
(0.383073 1.34241 -1.0189e-15)
(0.339183 1.3281 1.9243e-15)
(0.971056 -0.0697313 0)
(1.09525 -0.142031 -2.61254e-15)
(0.218971 1.73605 0)
(0.227571 1.45448 0)
(0.989192 -0.124329 -3.24481e-18)
(0.827771 -0.129533 -5.17821e-15)
(0.263138 2.0421 -8.83365e-17)
(0.110856 1.64096 0)
(-0.0306228 2.8083 2.23564e-15)
(0.227483 2.56284 0)
(1.22348 0.720085 -8.13183e-16)
(1.09819 0.0028621 -2.12409e-17)
(1.12203 -0.00664811 0)
(0.878222 -0.00745553 -1.44268e-19)
(0.0375359 1.9969 0)
(0.0335326 1.84109 0)
(0.00171356 1.92056 0)
(0.00738222 1.93472 6.4568e-16)
(-0.000898695 1.93896 4.11279e-16)
(1.06847 0.00748265 -2.06665e-17)
(1.13922 0.01238 0)
(1.1399 0.0183855 0)
(-0.0255026 1.58291 0)
(0.00935432 1.90345 0)
(-0.000336966 1.97023 0)
(0.325059 2.10599 1.09881e-15)
(1.05181 -0.191416 0)
(0.955311 -0.0256433 0)
(0.91541 0.237755 3.27093e-15)
(0.853749 0.105973 -3.90778e-15)
(1.07968 -0.0913653 0)
(0.392143 1.73199 0)
(-0.167714 1.65291 0)
(-0.0950742 1.90267 0)
(-0.00870479 1.79418 0)
(-0.365249 1.97924 0)
(0.0433139 1.51798 0)
(1.09937 -0.00488284 0)
(1.09235 0.00169386 -2.11284e-17)
(1.06795 1.70415 -1.33477e-15)
(0.955652 -0.259978 -3.27065e-15)
(0.950721 0.0971304 3.91205e-15)
(1.10231 0.0828405 0)
(1.02795 -0.020633 -3.16732e-15)
(1.13066 0.21959 -3.86738e-15)
(0.887259 -0.01212 0)
(-0.0621216 1.80028 0)
(0.323806 1.81666 2.14254e-16)
(-0.0198319 1.5701 -1.5719e-16)
(1.25796 0.220107 4.54189e-15)
(1.19672 0.052082 0)
(-1.03341 2.62776 -3.14098e-15)
(-0.157553 3.79714 -1.98657e-16)
(-0.506808 2.41526 4.04819e-15)
(0.163569 2.55295 3.83833e-15)
(-0.0790158 2.48247 0)
(0.0188328 2.78076 9.94207e-16)
(-0.757008 2.92763 3.09015e-15)
(0.00544027 2.78558 -1.87561e-15)
(-0.493486 3.01915 0)
(0.616444 0.322279 0)
(0.441359 0.347484 0)
(1.02503 0.900587 2.4663e-15)
(1.18084 0.891246 1.0926e-15)
(1.19439 0.479211 0)
(1.17422 0.537993 0)
(1.04575 0.0991666 -5.98265e-15)
(0.949458 0.0447564 7.45959e-15)
(1.13605 -0.227718 0)
(0.93018 -0.0481847 0)
(0.76296 0.113191 0)
(1.19399 -0.133097 0)
(1.01968 0.18787 0)
(0.906315 0.025911 0)
(1.03376 -0.215935 0)
(0.92288 -0.0442524 0)
(-0.00745092 1.81622 0)
(0.101233 1.72831 0)
(-0.0717317 1.93041 0)
(0.0161233 1.7775 0)
(0.468549 1.91392 0)
(0.133696 1.50495 -8.75858e-16)
(0.108315 1.60893 0)
(-0.0426864 1.61302 6.92144e-16)
(0.0227609 1.84858 -1.0056e-15)
(0.150091 1.83578 0)
(0.0607782 1.66425 0)
(-0.104489 1.81731 0)
(-0.0703827 1.69058 0)
(0.0868548 1.92625 -5.43609e-16)
(0.134871 1.87626 5.88593e-16)
(-0.174203 1.85721 7.0734e-16)
(0.0157544 1.48999 0)
(-0.180546 1.86327 2.27246e-17)
(-0.0812337 1.65573 -5.8638e-16)
(0.310064 2.05481 4.36635e-16)
(-0.358013 1.47666 -7.42165e-16)
(-0.0927776 1.40085 -8.68673e-16)
(1.0216 -0.0813283 5.34523e-15)
(0.937938 -0.0350987 -6.7717e-15)
(0.9985 0.0644181 -5.2502e-15)
(0.907361 0.048145 6.54232e-15)
(1.15211 0.23266 0)
(0.943095 0.0522332 0)
(1.10154 0.105217 0)
(1.09254 -0.0915598 0)
(0.885727 0.0133124 0)
(1.19047 0.148258 0)
(1.10834 -0.0530538 0)
(0.896483 0.0465861 0)
(-0.366301 1.53228 -2.16626e-17)
(-0.25209 1.6322 0)
(0.18245 1.77005 0)
(0.135494 1.79645 1.96625e-16)
(0.0645467 1.66708 -8.22234e-18)
(-0.115921 1.6457 2.24017e-16)
(-0.405127 1.61338 2.24948e-16)
(-0.216182 1.72845 0)
(0.342321 1.88919 0)
(0.129283 1.64316 0)
(-0.166701 1.86708 0)
(-0.0840009 1.67282 0)
(0.295837 1.97065 -2.27978e-15)
(0.452081 1.94685 -7.92055e-16)
(0.261409 1.53302 -3.25699e-16)
(0.126568 1.63871 1.04586e-15)
(0.402035 1.96472 4.72992e-16)
(1.0649 0.0771723 0)
(1.00227 0.101784 0)
(0.947462 0.0727323 0)
(0.933305 -0.00563029 0)
(1.04558 -0.161998 0)
(0.918029 0.0669721 0)
(0.995964 0.23892 0)
(1.02266 -0.100877 0)
(1.0327 -0.0710836 5.71153e-15)
(0.947882 -0.0395703 -7.23253e-15)
(1.03363 0.0783894 -5.61433e-15)
(0.944664 0.0439685 -2.76326e-17)
(0.961645 1.63044 0)
(0.897697 1.72939 -1.7173e-15)
(0.881596 1.67577 -1.42202e-15)
(1.01478 1.39661 1.88798e-15)
(0.959242 1.67344 4.36904e-15)
(0.849985 0.118163 2.02044e-15)
(1.1331 0.0374093 0)
(1.22197 0.372105 3.70182e-15)
(1.00334 0.110241 -1.58879e-16)
(1.05339 0.0806373 0)
(-0.386802 2.16116 2.56547e-15)
(-0.7368 2.54369 -4.16182e-15)
(-2.28868 2.10822 2.34727e-15)
(-1.92169 0.188972 -1.04842e-15)
(-0.0458302 2.32717 1.31712e-15)
(-0.586315 2.55235 0)
(0.106019 2.17589 -1.71141e-15)
(-0.0242071 1.96379 -5.86836e-15)
(-0.0554553 2.28885 0)
(-0.206526 2.49929 1.66047e-16)
(-0.102867 3.51661 -1.83808e-15)
(-0.0333315 2.56043 2.68484e-15)
(-0.601284 3.06103 0)
(0.315855 2.92718 0)
(1.00614 1.72951 0)
(0.481964 1.2699 -1.55218e-15)
(1.1165 1.13915 1.17577e-15)
(0.856626 1.57208 0)
(0.776899 1.00674 -8.92216e-16)
(0.962172 1.19808 2.12872e-17)
(-0.0919405 0.479083 -2.57859e-15)
(0.638953 0.230271 -5.55096e-18)
(0.602619 0.253829 1.24058e-15)
(0.314724 0.482285 8.38698e-17)
(0.214926 0.324246 -3.33959e-15)
(0.520789 0.455272 0)
(0.501357 0.643108 2.08733e-15)
(0.556753 0.297653 0)
(0.404794 0.344462 0)
(0.42971 0.303843 0)
(0.612756 0.729187 1.67094e-15)
(1.24816 0.139857 -3.69604e-15)
(1.11049 0.638439 0)
(1.16526 0.294855 0)
(0.76233 0.231357 1.92349e-15)
(0.55438 0.774822 -1.25137e-15)
(0.510388 0.494919 2.33736e-15)
(0.86681 0.40443 -2.94128e-15)
(1.00354 -0.0824543 3.88535e-15)
(1.02428 0.23579 -3.97727e-15)
(0.946507 0.00269337 0)
(0.985648 -0.0516172 0)
(0.993191 -0.0170565 -3.73885e-15)
(0.931254 0.0459108 3.7135e-15)
(0.956657 0.141533 0)
(0.908888 0.0758265 0)
(1.06201 -0.00630864 0)
(0.89385 -0.101428 0)
(1.12183 -0.00388113 0)
(0.960598 -0.0608215 0)
(0.364843 1.83403 0)
(0.0459065 1.73032 0)
(0.617631 1.88492 -1.09774e-15)
(0.463804 2.02208 -6.29251e-16)
(0.481506 1.88214 -1.3801e-15)
(0.278403 1.85059 7.08632e-16)
(-0.121039 1.84096 0)
(-0.0645226 2.01567 -1.18071e-15)
(-0.247375 1.98376 0)
(0.199721 1.68232 -6.8103e-16)
(0.151461 1.6408 1.52495e-15)
(0.431203 1.50343 1.0345e-15)
(0.0648417 1.65834 -6.08374e-16)
(-0.0288878 1.77808 -4.8726e-16)
(0.128978 1.80011 -1.57742e-15)
(0.265109 1.91018 1.10067e-15)
(0.391885 1.66838 -1.16759e-15)
(0.310939 1.6375 -3.81676e-16)
(0.37547 1.84734 0)
(0.0282807 1.86637 1.04284e-15)
(-0.332403 1.58592 0)
(0.0593288 1.6771 -7.69657e-16)
(0.0483785 1.56497 0)
(-0.0520877 1.92236 -6.93057e-16)
(0.0886511 1.59005 0)
(-0.0885845 1.82894 0)
(0.120147 1.59586 7.79047e-16)
(0.326069 1.96014 2.92164e-17)
(-0.0660661 1.73058 1.22688e-15)
(0.0993248 1.5666 8.59574e-18)
(0.29591 1.90393 3.88911e-16)
(0.074085 1.45651 2.29042e-16)
(-0.379948 1.71771 0)
(0.0121209 1.74756 0)
(0.0634301 1.51245 1.08952e-15)
(0.0417509 1.53098 1.04556e-15)
(0.1154 1.86058 -1.3316e-15)
(-0.0394422 1.92656 0)
(0.190352 2.03914 -7.04746e-16)
(-0.111862 1.5546 3.12215e-16)
(-0.13456 1.71851 -9.61843e-17)
(0.173273 2.06431 4.68577e-16)
(0.354999 1.60699 -1.5537e-16)
(0.0207365 1.38676 7.09113e-16)
(0.998674 0.0918591 -3.72961e-15)
(1.01113 -0.221452 3.63868e-15)
(0.938962 0.00341666 0)
(0.962016 -0.1127 4.77996e-15)
(0.89808 0.218983 -5.16357e-15)
(0.985387 -0.0301157 5.62858e-15)
(0.945104 -0.0623341 -6.40717e-16)
(1.11992 -0.184309 0)
(1.0108 0.0141225 3.58976e-15)
(0.92553 -0.0513236 -3.56858e-15)
(0.91762 -0.168507 -2.08867e-16)
(0.902687 0.240509 1.78351e-15)
(1.04548 0.147017 0)
(0.921779 0.08257 -6.16371e-16)
(1.05309 0.0272809 0)
(0.884759 0.123858 0)
(1.07782 0.0262088 0)
(0.899936 -0.0543872 0)
(0.967759 0.131093 1.27795e-15)
(1.12133 0.018847 -2.81753e-15)
(1.01773 -0.016762 0)
(0.961345 -0.0393763 -1.49919e-15)
(1.20419 0.0791739 2.9481e-15)
(0.860902 0.111159 0)
(0.88662 -0.0979873 0)
(-0.124005 2.0294 -3.07264e-16)
(0.441513 1.98706 -2.59758e-17)
(0.212899 1.48432 0)
(0.0505812 1.60962 3.129e-16)
(-0.318037 1.61338 2.50314e-17)
(-0.32336 1.69943 5.09592e-17)
(-0.249957 1.81833 5.14342e-16)
(-0.249819 1.73967 -3.21883e-17)
(0.29046 1.6631 1.52598e-16)
(0.265363 1.75084 -2.69286e-16)
(-0.0344211 1.66549 3.25927e-16)
(-0.0851426 1.6089 1.04404e-17)
(0.180975 2.09299 1.23579e-16)
(0.420626 1.6184 1.20426e-15)
(0.189801 2.11616 1.65771e-15)
(0.770078 1.80074 1.66039e-15)
(0.549075 1.91126 7.60886e-16)
(0.693134 1.87768 0)
(0.522544 1.47659 4.08679e-16)
(0.337082 1.3345 4.79079e-16)
(0.388922 1.58099 4.21779e-18)
(0.087222 1.43362 -1.86347e-15)
(0.718707 1.64875 1.33561e-15)
(0.148408 1.50456 0)
(0.18534 1.3314 -6.12547e-16)
(0.128068 1.63324 2.16018e-15)
(-0.149095 1.62319 -2.80531e-17)
(0.0763373 1.42487 -2.66908e-15)
(0.59381 1.51144 2.20225e-15)
(0.444952 1.47779 0)
(1.07894 0.303866 1.28913e-16)
(0.996059 -0.217692 -1.08363e-16)
(0.867288 -0.16291 -1.9217e-15)
(1.0655 0.075337 1.94743e-15)
(0.915658 -0.0408915 0)
(0.602957 1.55573 0)
(1.00563 1.65017 0)
(0.745947 1.20127 0)
(0.866277 1.5945 0)
(0.679924 1.73232 3.55095e-15)
(0.637134 1.37124 0)
(0.49654 1.32368 2.42848e-17)
(0.388319 1.33085 0)
(0.491325 1.79142 -1.9918e-15)
(0.756616 1.53047 0)
(0.789886 0.040139 0)
(0.801292 0.130368 5.1922e-16)
(0.796528 0.197658 3.39384e-15)
(0.863824 0.0142499 -1.19547e-15)
(0.810068 0.0613699 -3.79164e-15)
(1.27292 0.270228 -4.53443e-15)
(0.591157 0.563736 -1.21203e-17)
(1.10109 -0.0232228 3.09714e-15)
(0.864749 0.0445593 2.85271e-15)
(0.83761 0.192798 -4.68811e-15)
(0.982984 0.327819 5.6693e-16)
(0.653067 0.289425 -1.28267e-15)
(0.794805 0.352236 0)
(0.913674 0.162464 -2.36359e-15)
(1.05124 0.111976 0)
(1.06239 0.0269729 0)
(0.888574 0.280467 1.42027e-15)
(0.938169 0.454693 -1.45358e-17)
(0.799544 0.00139321 -2.26723e-15)
(0.938599 -0.0225751 0)
(0.86365 0.0120719 2.77741e-15)
(0.865385 -0.236372 2.09276e-15)
(1.15992 0.0894694 -2.70771e-15)
(1.01796 0.268481 -2.34917e-15)
(0.966407 -0.0949298 -3.38237e-15)
(0.824492 0.236403 0)
(0.898211 0.0112095 0)
(0.872142 0.139984 -1.96904e-15)
(0.913687 -0.166607 7.31583e-16)
(1.04721 0.201623 1.89429e-15)
(1.08492 0.0558025 -3.97115e-15)
(0.912305 0.18167 3.46031e-15)
(0.851569 0.268706 0)
(1.13576 0.204908 0)
(0.826986 0.0994997 -1.63891e-15)
(0.905665 0.0366493 -4.95062e-16)
(0.333663 1.76633 1.09453e-15)
(0.554223 1.26219 -1.10385e-15)
(0.81732 1.47008 -1.6498e-15)
(0.686095 1.50316 4.27238e-16)
(1.06852 1.57361 -4.23925e-15)
(0.931991 1.64332 1.55413e-15)
(0.815603 1.28037 -7.17925e-18)
(1.04628 1.78958 -1.85122e-15)
(0.434425 1.59688 2.73003e-15)
(0.549077 1.88484 8.39884e-16)
(1.13181 1.7062 -8.5752e-16)
(0.790336 1.7045 0)
(0.595125 1.48156 -1.81794e-16)
(-0.317828 1.61437 1.19604e-15)
(-0.633316 0.615526 1.63278e-15)
(-0.454464 0.931765 1.89728e-15)
(0.0956182 0.493401 1.89698e-15)
(0.144314 0.403885 -3.2183e-15)
(0.0857404 0.787427 2.62087e-15)
(-0.211271 0.383611 -9.63088e-16)
(0.0646039 0.34025 2.13909e-15)
(0.690436 0.299595 -1.13045e-15)
(0.608194 0.364457 0)
(0.628558 0.255378 -3.17661e-18)
(0.59931 0.456407 1.11375e-15)
(0.247059 0.624443 -4.04636e-15)
(0.183453 0.596844 4.04191e-18)
(0.461979 0.371722 0)
(0.488513 0.861051 1.35267e-15)
(0.680012 0.791157 1.87764e-15)
(0.765058 1.5334 -2.1387e-15)
(0.644454 0.847583 -8.12134e-16)
(0.832002 0.880678 -3.09994e-16)
(1.07296 1.27552 3.19316e-16)
(0.628007 0.789469 -2.78955e-15)
(0.737381 1.07283 7.58497e-16)
(1.09088 0.845843 0)
(0.943498 0.761315 -1.13127e-15)
(0.902475 0.307732 9.94931e-16)
(0.874169 0.47297 1.95248e-15)
(1.03948 0.361184 1.78722e-15)
(0.88754 0.444623 -1.90679e-15)
(1.05133 0.404361 0)
(1.01916 0.300661 0)
(0.634337 0.439376 -2.43762e-17)
(0.876874 0.190424 0)
(0.562703 0.312614 1.34724e-15)
(0.86201 0.328228 3.86291e-15)
(0.956095 0.702231 8.26478e-15)
(0.761297 0.570122 1.88887e-15)
(0.605157 0.510469 -2.03634e-15)
(0.596011 0.502306 -2.18257e-15)
(0.67019 0.633319 1.19044e-15)
(0.538906 0.370937 -1.15175e-15)
(1.07764 0.0665787 3.13131e-15)
(0.884234 -0.19538 0)
(0.885483 0.0324997 2.08951e-15)
(0.812418 0.327954 -4.69341e-15)
(1.12775 0.0129911 2.27262e-15)
(0.856357 0.00913315 -4.7958e-15)
(1.09228 -0.0472933 0)
(0.958976 0.0241391 -9.818e-16)
(0.939131 0.1292 2.47017e-15)
(0.970601 -0.00837739 -1.26449e-15)
(0.906628 -0.230808 9.22639e-16)
(-0.276708 1.79502 0)
(0.24145 1.63469 0)
(-0.241709 1.75491 0)
(-0.0131655 1.69838 0)
(-0.00419043 2.02892 1.98859e-15)
(-0.145608 1.80341 -6.05607e-16)
(0.124228 1.38184 -5.52196e-16)
(0.273117 1.37524 6.06409e-16)
(-0.581219 2.00077 -1.24628e-15)
(0.125203 1.49154 9.3907e-16)
(-0.0788501 1.95612 -2.87288e-17)
(-0.0101151 1.44476 -1.18775e-15)
(0.24731 1.76613 -1.64715e-16)
(0.532994 1.69718 -1.47634e-16)
(-0.131579 1.75344 -1.11672e-15)
(0.171448 1.59971 0)
(-0.147721 1.75531 5.19914e-16)
(0.196589 1.59461 4.99552e-16)
(0.10365 1.50513 -4.1806e-16)
(-0.126461 1.86741 0)
(0.38012 1.49572 -1.7504e-15)
(0.120921 1.67996 1.23651e-15)
(0.616793 1.65917 -1.52319e-15)
(0.111217 1.55032 6.02279e-16)
(-0.30124 1.10516 0)
(0.207027 1.39191 -8.07838e-18)
(-0.128475 1.34578 7.76491e-16)
(-0.0941449 1.8068 0)
(0.0522359 1.57935 -9.54995e-18)
(-0.114794 2.05355 5.85624e-16)
(-0.112262 1.56158 1.03945e-16)
(0.133925 1.53868 -1.41557e-15)
(-0.124624 2.04722 4.5588e-16)
(-0.238501 1.14535 -5.49197e-16)
(0.185712 2.1417 0)
(0.104082 1.97194 0)
(-0.313236 1.83221 4.49617e-16)
(0.382859 1.67417 -1.38536e-16)
(-0.0802337 1.66588 0)
(0.246566 1.76022 3.6007e-16)
(-0.0382896 1.70477 -6.95801e-16)
(0.950785 0.42778 0)
(1.18263 -0.0348775 -3.30382e-16)
(0.878947 0.207705 -2.32238e-15)
(0.892148 -0.0250257 0)
(0.818702 -0.323015 0)
(1.19477 -0.0198478 -9.71934e-18)
(1.06207 -0.273036 3.76585e-15)
(0.850795 0.0155381 4.55463e-15)
(1.09396 0.0611015 0)
(0.950797 -0.0137407 0)
(0.936474 -0.109818 2.28091e-15)
(0.961863 0.024457 0)
(0.904606 0.244515 0)
(0.0348256 1.79354 0)
(-0.0984884 1.40007 1.9892e-17)
(-0.254184 1.43488 1.54592e-16)
(-0.113424 1.71006 0)
(0.365074 1.92281 2.40308e-16)
(0.0726156 1.74593 -1.22823e-16)
(0.217331 1.48611 0)
(0.123401 1.54073 0)
(0.251717 1.2465 -1.43491e-15)
(0.314184 1.38348 0)
(0.551438 1.83009 3.43244e-15)
(0.511184 1.66948 0)
(0.634374 1.79524 9.86262e-17)
(0.217606 1.17992 -5.21821e-17)
(1.05164 1.36032 -2.62742e-15)
(0.619661 1.27408 3.25557e-15)
(0.629784 1.40408 5.87598e-16)
(0.222421 1.49523 0)
(0.537079 1.26005 0)
(0.389783 1.50115 0)
(0.430638 1.25508 -2.07038e-15)
(0.473766 1.32522 -1.56445e-15)
(0.159147 1.30034 -3.62015e-16)
(0.688868 1.66622 2.94447e-16)
(0.219201 1.4236 0)
(0.493678 1.34832 0)
(0.320496 1.31777 -5.7029e-16)
(0.430348 1.58875 0)
(0.536078 1.32396 0)
(0.88693 1.3652 -2.39358e-15)
(0.4385 0.999677 -1.44746e-16)
(0.875727 1.36149 0)
(0.66828 1.55519 3.64084e-15)
(0.854053 1.57049 -7.70715e-16)
(1.31726 1.29236 0)
(1.00321 0.86726 1.35726e-15)
(0.306526 1.74505 0)
(0.220647 1.32352 0)
(0.814684 1.15037 -1.48221e-15)
(0.681793 1.536 -1.12046e-15)
(1.00695 1.50147 1.94916e-15)
(0.663382 1.7439 -5.72044e-16)
(0.736996 1.57855 0)
(0.656863 1.32834 7.42341e-16)
(0.833029 1.36304 -1.13464e-15)
(0.662171 1.35453 6.04925e-18)
(0.634146 1.41821 0)
(0.454741 1.57003 -9.55548e-16)
(0.412111 1.25233 0)
(0.816282 0.0827633 0)
(0.809472 0.246577 0)
(0.652818 0.176747 0)
(0.744665 0.436698 2.13312e-15)
(0.769537 0.152015 1.18068e-15)
(1.13618 -0.0581321 -1.52544e-15)
(0.81744 -0.131927 0)
(0.98905 -0.0598032 6.30172e-16)
(0.86319 0.210456 2.50855e-15)
(0.637186 0.104766 -1.601e-15)
(0.754152 2.32888 1.39844e-15)
(0.695178 1.52979 0)
(0.821175 2.1402 2.42589e-15)
(0.203964 2.16136 -2.22032e-15)
(-0.151929 1.57021 -2.97524e-15)
(0.0341994 1.41147 1.96058e-15)
(0.537217 1.5139 0)
(0.360175 0.905565 -3.87926e-16)
(-0.0833574 1.22065 -2.55537e-15)
(-0.188311 1.16321 -5.97572e-16)
(0.111181 0.627305 6.32632e-16)
(0.182326 0.690509 1.44934e-15)
(0.483372 0.793254 0)
(0.282284 0.930865 0)
(0.0954569 1.0014 0)
(0.795317 0.795863 9.0593e-16)
(0.837244 0.642097 -2.06097e-15)
(0.96982 0.623932 0)
(0.752014 0.282483 -1.68536e-15)
(1.04759 0.760589 0)
(0.879461 0.66391 -5.80062e-16)
(0.827914 0.386705 -2.8131e-15)
(0.782741 0.128693 -3.63821e-15)
(0.585255 0.43661 2.15931e-15)
(0.558595 0.52396 -2.03221e-15)
(0.725188 0.441602 -1.68726e-15)
(0.661614 0.276613 2.07571e-15)
(1.11898 -0.0144812 -2.40086e-15)
(1.11892 0.0181744 4.99249e-15)
(1.08404 0.00571718 3.02052e-15)
(1.06508 -0.117888 -3.65926e-15)
(0.732128 0.120608 0)
(0.688634 -0.0696138 -3.54683e-15)
(0.259123 1.39609 2.32383e-16)
(-0.327333 1.83745 0)
(0.223345 1.85303 2.00084e-15)
(0.231284 1.76808 -1.82846e-15)
(-0.0572794 1.92553 1.02793e-15)
(0.278889 1.66093 0)
(-0.315368 1.68433 0)
(0.284287 1.4979 -1.41803e-16)
(0.0318338 1.64541 -2.41981e-16)
(0.47116 1.5867 1.92335e-17)
(-0.393541 1.91841 -2.24635e-16)
(-0.310231 1.77804 1.26049e-16)
(0.602388 1.60388 -2.90727e-15)
(0.897738 1.61932 -3.25404e-15)
(0.42829 1.84298 -1.94072e-15)
(0.80973 1.53933 1.38173e-16)
(0.441995 1.78653 0)
(0.721216 1.76488 -1.88115e-15)
(0.637 1.5864 1.82144e-15)
(0.436091 1.60343 1.88735e-15)
(0.486869 1.67105 0)
(0.896335 1.76603 -3.86599e-15)
(0.934025 1.32572 2.38765e-15)
(0.442625 1.54252 3.01326e-15)
(0.0142975 1.55527 -2.06004e-15)
(-0.186272 1.61574 -3.44664e-16)
(0.408284 1.34829 7.3482e-16)
(0.547137 1.10573 -8.86641e-16)
(0.772939 1.33869 -1.86301e-15)
(0.507246 1.46572 0)
(0.649613 1.33556 -2.07534e-15)
(0.906482 1.50154 0)
(0.478341 1.8763 0)
(0.562475 1.9643 -1.69577e-15)
(0.705463 1.5446 -1.67742e-15)
(0.641727 2.02315 1.70788e-15)
(-0.435492 1.45823 0)
(0.149524 1.38255 -8.64848e-16)
(0.0829088 1.49857 -3.89345e-15)
(0.459335 1.54127 0)
(0.776539 1.87739 1.06644e-15)
(0.514573 1.91665 0)
(0.644656 1.0188 -2.90152e-15)
(0.521946 1.12723 4.19865e-15)
(0.838285 0.822467 -8.37834e-16)
(0.411319 0.815589 3.51119e-16)
(0.352604 0.858035 -1.4897e-15)
(0.89274 1.80224 1.26667e-15)
(0.580686 1.57147 -2.18336e-15)
(0.298525 1.70211 1.66387e-15)
(0.520845 1.4831 -1.80208e-15)
(0.559345 1.87619 -2.54984e-15)
(0.584832 1.70415 -1.97314e-16)
(0.847095 1.30233 2.2029e-15)
(0.510756 1.77052 1.529e-16)
(0.531054 1.27755 3.16539e-15)
)
;

boundaryField
{
    wall-4
    {
        type            noSlip;
    }
    velocity-inlet-5
    {
        type            fixedValue;
        value           uniform (1 0 0);
    }
    velocity-inlet-6
    {
        type            fixedValue;
        value           uniform (0 3 0);
    }
    pressure-outlet-7
    {
        type            zeroGradient;
    }
    wall-8
    {
        type            noSlip;
    }
    frontAndBackPlanes
    {
        type            empty;
    }
}


// ************************************************************************* //
