/*--------------------------------*- C++ -*----------------------------------*\
| =========                 |                                                 |
| \\      /  F ield         | OpenFOAM: The Open Source CFD Toolbox           |
|  \\    /   O peration     | Version:  2412                                  |
|   \\  /    A nd           | Website:  www.openfoam.com                      |
|    \\/     M anipulation  |                                                 |
\*---------------------------------------------------------------------------*/
FoamFile
{
    version     2.0;
    format      ascii;
    arch        "LSB;label=32;scalar=64";
    class       volVectorField;
    location    "3";
    object      U;
}
// * * * * * * * * * * * * * * * * * * * * * * * * * * * * * * * * * * * * * //

dimensions      [0 1 -1 0 0 0 0];

internalField   nonuniform List<vector> 
38
(
(0.0157267 1.74761 0)
(0.0187724 1.69215 0)
(0.259641 1.97957 6.3724e-19)
(-0.00138247 1.79033 0)
(0.038113 1.78507 0)
(0.0135519 1.78146 0)
(0.00718409 1.70046 0)
(0.00999264 1.73481 0)
(0.0173021 1.69016 0)
(0.169941 1.94786 -5.33198e-19)
(0.0365589 1.84385 0)
(0.0982036 1.8521 0)
(0.000600494 1.76405 0)
(-0.0356044 1.70876 0)
(-0.0169619 1.76003 0)
(0.0177131 1.74071 0)
(0.00382889 1.70604 0)
(0.0654591 1.8551 0)
(0.0656277 1.85438 0)
(0.0368697 1.85674 0)
(0.0686309 1.87356 0)
(0.0652038 1.89777 0)
(0.00954067 1.80457 0)
(0.0252396 1.84797 0)
(0.0193913 1.83622 0)
(0.0497783 1.80776 4.625e-20)
(0.0900326 1.91017 2.57306e-19)
(0.120625 1.93781 -1.24684e-19)
(0.121307 1.83727 0)
(0.0191433 1.80597 0)
(0.0159531 1.82625 0)
(0.0156356 1.81536 0)
(0.0663836 1.75926 7.89866e-20)
(0.0655418 1.76931 -4.81712e-20)
(0.0589547 1.75855 -4.97157e-20)
(0.0532871 1.77968 -3.72192e-20)
(0.0378374 1.79802 -1.75103e-21)
(0.0251349 1.77448 -1.06388e-21)
)
;

boundaryField
{
    wall-4
    {
        type            noSlip;
    }
    velocity-inlet-5
    {
        type            fixedValue;
        value           nonuniform List<vector> 0();
    }
    velocity-inlet-6
    {
        type            fixedValue;
        value           nonuniform List<vector> 0();
    }
    pressure-outlet-7
    {
        type            zeroGradient;
    }
    wall-8
    {
        type            noSlip;
    }
    frontAndBackPlanes
    {
        type            empty;
    }
    procBoundary12to13
    {
        type            processor;
        value           nonuniform List<vector> 5((-0.00965872 1.78876 0) (0.0153013 1.79427 0) (0.0198001 1.76896 0) (0.040661 1.76903 6.08739e-20) (0.0121694 1.76533 -9.15387e-21));
    }
    procBoundary12to14
    {
        type            processor;
        value           nonuniform List<vector> 3((0.199907 1.83982 3.07772e-20) (0.0371743 1.70617 0) (0.0881132 1.78216 -2.0212e-20));
    }
    procBoundary12to15
    {
        type            processor;
        value           uniform (0.00869386 1.73083 0);
    }
    procBoundary12to22
    {
        type            processor;
        value           nonuniform List<vector> 2((0.368236 2.0591 -6.52382e-19) (0.255766 1.93394 1.22056e-19));
    }
}


// ************************************************************************* //
