/*--------------------------------*- C++ -*----------------------------------*\
| =========                 |                                                 |
| \\      /  F ield         | OpenFOAM: The Open Source CFD Toolbox           |
|  \\    /   O peration     | Version:  2412                                  |
|   \\  /    A nd           | Website:  www.openfoam.com                      |
|    \\/     M anipulation  |                                                 |
\*---------------------------------------------------------------------------*/
FoamFile
{
    version     2.0;
    format      ascii;
    arch        "LSB;label=32;scalar=64";
    class       volVectorField;
    location    "7";
    object      U;
}
// * * * * * * * * * * * * * * * * * * * * * * * * * * * * * * * * * * * * * //

dimensions      [0 1 -1 0 0 0 0];

internalField   nonuniform List<vector> 
39
(
(0.00508576 2.9662 0)
(-0.00712864 2.94885 -2.06117e-18)
(0.0113934 2.93024 0)
(-0.015214 2.91014 7.29931e-19)
(-0.0204037 2.98774 -7.29011e-23)
(-0.0165847 3.00516 1.5996e-18)
(0.00204609 2.99993 0)
(0.0145479 3.00054 7.57032e-19)
(0.0112741 3.00947 0)
(0.00590891 3.00227 0)
(0.0135728 2.9979 8.49952e-24)
(0.00767011 2.95842 -1.12634e-18)
(0.0148411 2.98146 0)
(0.0111588 2.9026 0)
(-0.013039 2.9847 6.79171e-19)
(-0.0186668 2.89564 0)
(-0.0156453 2.98781 -2.13162e-18)
(-0.0130834 2.9247 7.35154e-19)
(0.00554896 3.06455 -6.82117e-21)
(0.0152886 3.05769 0)
(0.0145473 2.96837 0)
(0.00806137 2.87595 0)
(0.00359692 3.05045 -1.46414e-20)
(0.0211906 3.04298 5.23871e-19)
(-0.0147933 2.99668 2.4319e-20)
(-0.0131614 2.94967 -9.75841e-23)
(-0.0173549 3.01122 -4.54994e-19)
(0.0152226 3.02058 3.3181e-19)
(0.00801313 3.03778 -5.23273e-19)
(0.0101372 3.07568 0)
(0.0203507 2.9444 9.2075e-19)
(0.0164263 2.95653 0)
(0.00590826 2.85057 -9.12997e-19)
(0.00536062 3.09328 2.20649e-19)
(0.00782372 3.08099 0)
(-0.00872149 2.98036 6.03634e-19)
(-0.0218072 2.88225 -6.14782e-19)
(0.0090069 3.09736 -1.62934e-18)
(0.00104685 3.10607 1.59732e-18)
)
;

boundaryField
{
    wall-4
    {
        type            noSlip;
    }
    velocity-inlet-5
    {
        type            fixedValue;
        value           nonuniform List<vector> 0();
    }
    velocity-inlet-6
    {
        type            fixedValue;
        value           uniform (0 3 0);
    }
    pressure-outlet-7
    {
        type            zeroGradient;
    }
    wall-8
    {
        type            noSlip;
    }
    frontAndBackPlanes
    {
        type            empty;
    }
    procBoundary2to1
    {
        type            processor;
        value           nonuniform List<vector> 4((0.0251267 2.92989 1.59653e-24) (0.00427855 2.82509 0) (0.0155393 3.11769 1.42389e-18) (-0.00272511 2.97712 -5.50205e-19));
    }
}


// ************************************************************************* //
