/*--------------------------------*- C++ -*----------------------------------*\
| =========                 |                                                 |
| \\      /  F ield         | OpenFOAM: The Open Source CFD Toolbox           |
|  \\    /   O peration     | Version:  2412                                  |
|   \\  /    A nd           | Website:  www.openfoam.com                      |
|    \\/     M anipulation  |                                                 |
\*---------------------------------------------------------------------------*/
FoamFile
{
    version     2.0;
    format      ascii;
    arch        "LSB;label=32;scalar=64";
    class       volScalarField;
    location    "7";
    object      p;
}
// * * * * * * * * * * * * * * * * * * * * * * * * * * * * * * * * * * * * * //

dimensions      [0 2 -2 0 0 0 0];

internalField   nonuniform List<scalar> 
918
(
0.243758
1.00054
0.00445631
0.241284
0.00140082
0.967653
-0.700823
0.452668
0.223452
-0.120128
0.0275588
0.213015
0.827292
0.59265
-1.35986
0.0223479
0.382139
-0.675362
0.211769
0.014005
0.552833
0.232875
0.233914
0.223568
0.276214
0.56621
0.709434
-0.000320596
-0.00112063
-0.00115194
0.0027591
0.00121605
0.00764743
0.851797
0.902305
0.924852
0.197105
-0.232761
-0.523784
-0.6472
-0.571302
-0.765653
0.433654
0.436234
-0.461287
0.455444
0.475555
0.214331
0.221778
0.223193
0.228053
0.223906
0.225865
0.287107
-0.128493
-0.17624
-0.0576667
-0.0383871
0.0869636
0.0283431
0.0316586
0.0247169
0.0295562
0.155171
0.209161
0.207842
0.215607
0.221539
0.940012
0.912486
0.938259
0.850716
0.867762
0.805809
0.778929
0.614539
0.635909
0.577825
0.566639
-1.82681
-2.84616
-0.742497
-0.490345
0.00348055
0.0280508
0.0274
0.365321
0.372195
0.377309
0.396474
0.710947
-0.627621
-0.833513
0.217425
0.213082
0.230324
0.229589
0.223531
0.223895
0.0191467
0.021515
0.00189173
0.0110389
0.00855587
0.548929
0.542971
0.222596
0.21863
0.233343
0.249799
0.239282
3.54665e-05
0.285546
0.316428
0.402967
0.56246
0.554396
0.563679
0.683409
0.646882
0.746903
0.771768
0.00624443
0.00045973
0.0199892
0.00792677
0.0165924
0.191249
0.18629
0.206493
0.200624
0.198987
-0.214356
-0.256123
-0.288365
-0.346847
-0.489635
-0.588227
-0.650755
-0.623339
-0.821925
0.635165
0.412492
0.419348
-0.437047
-0.374914
-0.522993
-0.320825
-0.40207
0.202607
0.20898
0.206043
0.219617
0.215577
0.220682
0.227579
0.223928
0.225465
0.312178
0.371031
0.254119
0.231443
-0.39769
-0.214366
-0.404392
-0.0190902
-0.00841636
0.10122
0.116115
0.0807907
0.0766072
0.00129803
0.028602
0.0113044
0.0294376
0.0289001
0.14383
0.136328
0.164765
0.172016
0.201115
0.20342
0.203646
0.202936
0.728946
0.751937
0.759417
0.732524
-3.91171
-6.80329
-0.152372
-0.0111442
0.00454022
0.00273939
0.002785
0.00428154
0.00536507
0.00287554
0.0495133
0.0473906
0.0342906
0.0453252
0.348304
0.357833
0.690754
0.758724
0.634373
0.626407
0.2071
0.210077
0.213626
0.209566
0.0285449
0.0238175
0.0251528
0.481647
0.515606
0.507012
-0.0401808
-0.129918
0.0479535
0.0718856
0.339283
0.321867
0.336674
0.460732
0.496299
0.777311
0.793232
0.795361
0.801929
0.846253
0.862882
0.82626
0.175195
0.181807
0.178476
0.207867
0.205834
0.206007
0.200019
0.202154
0.202648
-0.364354
-0.701197
0.0894649
-0.0872248
-0.36632
-0.201818
0.659987
0.726441
0.389183
0.401437
0.406363
-0.248221
-0.331971
0.201818
0.180947
0.0954721
0.12626
0.108668
0.699924
0.660174
0.710367
0.683815
0.64528
0.671696
-0.625183
-2.19543
-1.25112
0.345358
0.160066
0.246047
0.0663212
0.0536957
0.0566381
0.749612
0.806383
0.408841
0.529223
0.5096
0.534766
0.565013
0.620459
0.545461
0.579716
0.616478
0.59726
0.477846
0.21907
0.418501
0.742305
0.814132
-0.150069
-0.194108
-0.261683
0.126834
0.154272
0.135447
0.78977
0.792244
0.827213
0.219861
0.222557
0.011754
0.015838
0.227064
0.226313
0.00768583
0.00628979
0.239245
-1.05859
-0.160817
0.213057
0.207906
0.219329
-0.064955
0.269009
0.029123
0.0923819
0.0649047
0.20977
0.163045
0.130417
0.00075096
0.0255257
0.0191524
-0.306653
0.217287
0.214524
0.219049
0.220486
0.221516
0.00675899
0.010009
0.00780471
0.0171481
0.0129432
0.0128767
0.190836
0.20135
-0.3049
0.21989
0.223107
0.223191
0.214287
0.221405
0.217368
0.0193506
0.0133564
0.0188231
-0.0407263
0.0691215
0.474447
0.55983
0.453511
0.226728
-0.0204899
0.371738
0.437699
0.342489
0.497746
0.390481
0.436882
-0.0948362
-0.235498
-0.0963526
-0.143314
0.211182
0.208891
0.205152
0.202048
0.219938
0.215743
0.218678
0.215745
0.217175
0.218004
-0.0216644
-0.036946
-0.0857996
-0.161219
0.293418
0.367672
0.225492
0.239515
0.151713
0.0417576
0.032476
0.0305187
0.0306159
0.0660917
0.0688294
0.0803532
0.0810774
0.057071
0.0548334
0.0651013
0.0656598
0.0709427
0.205367
0.202389
0.209322
0.21444
0.16827
0.173347
0.145001
0.162513
0.146783
0.0983789
0.126636
0.106238
0.0103192
0.00668386
0.00793373
0.0280348
0.0341671
0.0230038
0.0163017
0.0209603
0.0155333
0.0128181
0.0235115
0.0250357
-0.242554
-0.378549
0.675657
0.559876
0.328356
0.213421
0.214359
0.210979
0.211655
0.216221
0.222791
0.222116
0.215992
0.202467
0.203298
0.201269
0.2006
-0.214839
-0.372206
-0.278964
-0.348818
-0.39667
0.320411
0.0760331
0.0220055
0.00979771
0.207812
0.748278
0.543688
0.523757
0.518983
-0.533257
-0.134128
-0.472591
0.183287
0.0271088
0.466768
0.517437
0.540214
0.487397
0.438791
-0.42596
0.18345
-0.303401
-0.267104
-0.142489
-0.21715
0.516614
0.371702
0.381368
0.429233
0.461996
0.384165
0.362073
0.361278
0.410426
0.409646
0.173985
-0.0191519
-0.0609213
-0.100762
0.359768
0.224082
0.280966
0.200115
0.20501
0.208531
0.207881
0.194492
0.200597
0.19972
0.199955
0.202473
0.211088
0.209862
0.208352
0.210716
-0.0166015
-0.0140279
-0.0398044
-0.185998
-0.175688
-0.257491
-0.107721
0.13579
0.110174
0.304495
0.384595
0.06791
-0.083885
-0.06265
0.0381163
0.157668
0.172355
0.120383
0.168361
0.173288
0.146044
0.212176
0.203165
0.0473433
0.0589957
0.0420942
0.0375953
0.0997764
0.122493
0.118143
0.0563319
0.057733
0.0375021
0.0363614
0.0846677
0.0553645
0.066725
0.072941
0.0304512
0.0307334
0.035629
0.0477
0.0431127
0.0487989
0.201133
0.200888
0.202931
0.215766
0.223353
0.238991
0.210569
0.187121
0.178575
0.18179
0.164014
0.175126
0.167326
0.177125
0.189419
0.197184
0.198442
0.199147
0.18718
0.187756
0.18227
0.184025
0.160851
0.141006
0.132662
0.0246693
0.0161648
0.0240718
0.0173043
0.0154593
0.0188063
0.0492302
0.0411414
0.0438093
0.0401863
0.0458932
0.0226444
0.0220037
-0.0939965
0.0333768
-0.293135
-0.288862
-0.399946
0.657435
0.72787
0.563426
0.478484
0.508106
0.602307
0.630644
0.400351
0.477856
0.477758
0.549482
0.719361
0.209682
0.212769
0.210286
0.206658
0.208333
-0.170895
-0.20036
-0.230118
-0.248865
-0.316094
-0.355312
0.14539
0.461835
0.42869
0.200269
0.313273
0.330124
0.271566
0.300718
0.304673
0.13354
0.205274
0.257761
0.213853
0.252262
0.273461
0.245598
0.268736
0.217249
0.179954
0.180854
0.127518
0.139385
0.121535
0.104303
0.201974
0.180131
0.18833
0.180819
0.204512
0.228478
0.22223
0.239706
0.257406
0.189357
0.155985
0.162059
0.18338
0.152916
0.164501
0.175767
-0.854078
-0.901564
-0.469135
-0.650811
-0.581693
-0.417379
-0.499277
-0.630327
-0.425896
-1.00419
-0.80829
-1.40275
0.0365416
0.774181
0.493958
0.449118
0.464361
0.440083
0.448915
0.499285
0.49013
0.34717
0.364547
0.36895
0.3166
0.345124
0.415538
0.394676
0.143663
0.045104
-0.00971878
0.00766333
-0.111935
-0.0859141
0.12079
0.0525215
-0.0130707
-0.00226318
0.17388
0.0624087
0.127249
0.163601
0.0981959
0.0657207
0.245313
0.311751
0.295675
0.271938
0.190508
0.202001
0.23554
0.277059
0.298904
0.336118
0.200292
0.206593
0.208275
0.204578
0.202685
0.204623
0.204643
0.205469
0.207349
0.20784
0.207721
0.0277764
0.0345812
0.00531509
0.0143672
0.034284
0.0200454
0.0648058
0.0390503
0.0471221
0.050829
0.0256872
0.00786737
0.0186146
0.0341987
0.160166
0.190724
0.184959
0.139178
0.245407
0.349493
0.400234
0.353474
0.214015
0.2354
0.27771
0.0941861
0.0967479
0.0848325
0.106979
0.105378
0.0435597
0.0404919
0.0417451
0.0486061
0.0466828
0.0349918
0.0286429
0.0293307
0.0303884
0.0339288
0.034005
0.188716
0.182977
0.182361
0.176076
0.176813
0.190698
0.193278
0.19447
0.196605
0.198099
0.193182
0.197315
0.198372
0.0367673
0.0247276
0.028982
0.0308062
0.0289585
0.0240277
0.0255412
0.233321
0.127435
0.223976
0.0828889
-0.169405
-0.0601575
0.318556
0.48919
0.33491
0.632907
0.586645
0.423423
0.447186
0.62251
0.400335
0.614856
0.540571
0.685698
0.662904
0.737571
0.60228
-0.407028
-0.284491
-0.132001
-0.748
-0.574443
-0.099453
-0.177108
-0.128087
-0.198947
-0.128715
-0.249865
-0.279903
-0.389276
-0.0191097
-0.161159
0.029728
-0.337406
-0.342218
0.0045394
-0.478495
-0.231436
0.308935
0.328945
0.344947
0.315444
0.343306
0.263047
0.258435
0.272171
0.285938
0.274388
-1.12407
-0.976101
-1.66143
-0.940931
-0.56939
0.119243
-0.104644
0.502457
0.353198
0.471829
0.428325
0.378838
0.32111
0.320988
0.374558
0.0492843
0.157348
0.127267
0.144582
0.0564872
-0.0126911
0.28818
0.277559
0.31882
0.338275
0.30669
0.340515
0.199149
0.196544
0.199996
0.197178
0.190195
0.189976
0.110959
0.0808616
0.119137
0.103483
0.0676223
0.057582
0.0429913
0.0391327
0.0360849
0.0358863
0.0412271
0.0429183
0.206551
0.19861
0.0930937
0.185434
-0.147529
-0.109791
-0.180931
0.00316831
-0.0167673
-0.0765258
0.449133
0.604634
0.534611
0.570845
0.47327
0.484342
0.179858
-0.13239
-0.0282199
0.109024
0.242721
-0.236962
-0.755725
-0.571363
0.633442
0.584821
0.340201
0.160008
-0.0654122
0.226256
0.195307
0.140397
0.192229
0.264978
0.269558
-0.56239
-0.508633
-0.393291
-0.304555
-0.881605
-0.519793
-0.582468
-0.547809
-0.738601
)
;

boundaryField
{
    wall-4
    {
        type            zeroGradient;
    }
    velocity-inlet-5
    {
        type            zeroGradient;
    }
    velocity-inlet-6
    {
        type            zeroGradient;
    }
    pressure-outlet-7
    {
        type            fixedValue;
        value           uniform 0;
    }
    wall-8
    {
        type            zeroGradient;
    }
    frontAndBackPlanes
    {
        type            empty;
    }
}


// ************************************************************************* //
