/*--------------------------------*- C++ -*----------------------------------*\
| =========                 |                                                 |
| \\      /  F ield         | OpenFOAM: The Open Source CFD Toolbox           |
|  \\    /   O peration     | Version:  2412                                  |
|   \\  /    A nd           | Website:  www.openfoam.com                      |
|    \\/     M anipulation  |                                                 |
\*---------------------------------------------------------------------------*/
FoamFile
{
    version     2.0;
    format      ascii;
    arch        "LSB;label=32;scalar=64";
    class       surfaceScalarField;
    location    "7";
    object      phi;
}
// * * * * * * * * * * * * * * * * * * * * * * * * * * * * * * * * * * * * * //

dimensions      [0 3 -1 0 0 0 0];

oriented        oriented;

internalField   nonuniform List<scalar> 
1300
(
3.75095
5.62643
-6.3975
3.75095
-6.25599
5.62643
-4.88521
4.88521
-1.57628
1.57628
1.87993
1.87102
-5.26869
5.26869
-5.33787
5.33787
-2.95832
2.95832
-5.24624
5.24624
-5.06945
5.06945
4.71213
-4.71213
-5.13412
5.13412
-2.06693
2.06693
-5.82803
5.82803
3.16665
-3.16665
-5.37744
5.37744
-0.613153
0.613153
-0.543973
4.29493
3.20698
3.20698
-2.76045
2.76045
-4.86649
4.86649
6.21738
-6.21738
9.68179
-9.68179
-3.28429
-3.3367
1.32469
-8.06376
-4.93131
-4.93131
-8.4401
8.4401
-2.81367
2.81276
3.08819
-3.08819
-1.12158
1.12158
-4.63053
-0.254687
-4.63053
5.28091
-0.395699
5.28091
-1.75718
0.1809
-1.75718
4.11865
-4.11865
1.41218
0.164098
1.41218
3.04573
-3.04573
-1.87928
3.75921
1.87167
-1.86876
6.16369
-1.88219
3.75321
-4.80116
4.80116
-5.438
0.16931
-5.438
5.21515
0.0535392
5.21515
-5.32609
5.32609
-5.30653
-0.0313396
-5.30653
5.3578
-0.0199346
5.3578
3.15902
-3.15902
-3.00933
0.0510059
-3.00933
2.90171
0.056608
2.90171
0.353162
5.27327
-5.97959
8.79235
-5.27327
0.0270264
5.20686
0.039382
5.20686
-5.10612
0.0366698
-5.10612
5.01226
0.0571846
5.01226
4.84805
-0.135919
4.84805
-4.79828
0.0861546
-4.79828
-3.26868
-3.34805
-5.21246
0.0783391
-5.21246
-2.08249
0.0155533
-2.08249
2.06661
0.000328767
2.06661
-3.83338
3.83338
-5.93652
0.10849
-5.93652
3.10834
0.0583104
3.10834
1.86997
1.88098
5.62092
-5.62092
2.45427
-5.37133
-0.00611275
-5.37133
-5.4058
-4.27599
5.4058
-0.0283622
-0.944737
0.331585
-0.944737
3.14277
0.0642061
3.14277
2.85727
0.0444438
-2.85727
0.0968189
3.56086
-3.56086
2.10376
0.656688
2.10376
-5.56673
5.56673
4.95516
0.0571029
-4.95516
0.0886738
6.1567
0.060678
6.1567
-6.19934
-0.0180357
-6.19934
3.33934
-6.67604
-3.29302
5.03877
0.0953532
-5.03877
0.107456
3.10363
-0.0154407
3.10363
-3.04952
3.04952
-3.07169
-0.0165052
-3.07169
-1.81006
0.688476
-1.81006
0.691157
0.430426
0.691157
-4.44573
-0.1848
-4.44573
-5.67122
-0.265298
5.67122
-0.390309
1.95242
-1.95242
-1.88956
0.132377
-1.88956
-4.24795
-0.197773
4.24795
-0.129303
-4.0481
-0.0705524
-4.0481
-3.064
-0.00768652
3.064
-0.0182702
3.07905
0.0637288
-3.07905
0.0333149
-1.87061
3.75159
-1.88034
3.75202
-4.59346
-0.207698
-4.59346
5.02752
-0.22636
5.02752
5.65161
0.176421
-5.65161
0.213605
5.24839
-0.0332317
5.24839
-5.28187
-0.0442186
-5.28187
5.34079
-0.0146961
5.34079
5.28416
-0.0357715
-5.28416
-0.0223689
5.35812
-0.000318253
5.35812
3.19436
-0.0353374
3.19436
-3.13286
-0.026163
-3.13286
3.02806
-3.02806
3.01725
0.0108048
-3.01725
0.00792477
-11.1336
11.1155
-0.034057
-11.0995
5.1728
5.1728
4.28263
0.565421
4.28263
-5.00923
0.21095
-5.00923
3.2857
-6.57872
3.28709
-6.55577
3.36701
-11.4308
3.3109
-6.65895
5.29073
-5.29073
5.26494
0.0257868
-5.26494
0.0524835
-2.0909
0.00841448
-2.0909
-3.60466
-0.228718
-3.60466
4.10571
-0.27233
4.10571
-3.02508
3.02508
-3.04645
0.0213729
3.04645
0.0618886
5.36048
-0.00236473
-5.36048
-0.0108432
1.20121
0.210973
-1.20121
0.256473
3.73813
-0.177275
3.73813
-3.36666
-0.1942
-3.36666
-2.06962
-0.0212832
2.06962
0.0341416
-5.816
0.249266
-5.816
-11.1925
0.0929894
-11.1531
-6.10635
-6.10635
2.33375
11.1261
-3.12371
-0.00914576
3.12371
-0.0200784
3.03269
-0.00761479
-3.03269
-0.0168217
-3.04542
0.0173617
3.04542
0.00409833
-2.44003
0.629968
-2.44003
-0.919817
0.919817
-0.635116
-0.284701
0.635116
0.0560411
2.43319
-0.480765
2.43319
1.99136
0.0752468
-1.99136
0.101801
-3.93784
-0.110253
-3.93784
5.19711
-0.169594
5.19711
-3.25931
-0.10735
3.25931
-0.0649528
-0.0325396
11.1481
-5.14026
0.0341442
5.14026
-11.2088
11.2429
-3.25804
0.818009
3.25804
1.02459
5.28851
0.278216
-5.28851
0.27928
5.32161
0.0191782
-5.32161
0.0308805
-3.40044
-0.204224
-3.40044
-4.36216
-0.231298
4.36216
-0.256453
-11.4736
-0.203823
11.6775
-11.4165
6.01982
0.13688
-6.01982
11.3798
-1.462
-0.490423
1.462
-0.542183
2.82444
-0.39125
2.82444
3.88288
-0.144745
-3.88288
-0.0549652
-5.24951
-0.0323639
5.24951
-0.0523973
-3.179
-0.22144
3.179
-0.354559
-4.24825
4.31246
1.91543
-3.33098
-3.34505
-7.60697
1.83175
1.91984
4.28602
-7.05026
-4.38051
-6.9428
7.24981
-6.97053
-9.32916
9.19324
7.37159
-7.44214
-5.75525
5.81714
6.35549
-6.37376
1.87901
1.8802
10.6569
-10.4876
-10.3294
10.1217
10.2322
-10.2635
10.6628
-10.707
-12.2649
12.2841
-5.69418
5.74519
-6.61028
6.58411
-6.72993
6.66498
-3.3221
-3.23367
8.99993
-8.92159
11.7161
-11.7222
-11.0502
11.1587
3.3271
0.98536
3.39083
-1.88815
3.76717
-1.86506
3.78049
3.25889
-6.58099
3.31982
-6.66488
6.03055
5.68554
-6.00219
-1.60479
-5.85685
5.84141
-5.81488
5.81898
8.2443
-8.49899
-1.88825
3.76845
-1.86376
3.78361
-3.40187
-2.35337
3.34356
0.942459
5.56142
3.43851
-5.65677
-1.28603
-7.50806
7.36332
-7.8406
7.6464
-0.427972
5.80816
-5.38019
4.43852
-1.54433
7.35249
5.70548
5.91643
5.86448
-5.58626
1.10605
-6.48624
-6.39757
-2.65814
2.79051
2.64406
-2.47996
5.67232
1.69927
5.54302
-5.39188
-2.05026
-5.50214
3.82708
1.99006
3.84845
4.04697
2.30852
4.03929
3.04778
-3.02946
-0.0183249
-3.11169
6.15947
0.738996
-5.46506
-4.5226
6.88362
3.7733
6.93716
-7.2305
-3.2571
-7.0169
-6.21273
-4.11665
-6.44403
6.6203
3.50138
6.39394
-7.84789
7.79549
6.78894
3.44325
6.769
-6.82609
-3.43744
-6.84846
10.3664
-2.68527
-7.6811
-6.88816
-5.37678
6.90286
3.75997
7.45487
4.82925
7.48576
3.54913
6.81724
-7.30909
1.93231
-3.82302
-1.87116
-3.8151
3.70131
2.04387
3.75792
-4.15821
-2.45207
-4.16735
-4.19788
-2.53206
4.23321
2.3509
-4.27537
-3.56523
4.38272
2.28226
3.02577
-7.40628
3.63318
-6.86686
-6.2528
-2.66879
-6.20032
3.98665
2.72298
-6.70962
-2.59435
10.864
-5.17847
9.25923
-7.29557
-4.42663
-7.30641
-8.06265
-2.98752
-8.32795
-5.75822
5.554
-5.85634
5.58401
10.6719
-5.42889
-5.24302
-3.86231
-2.51145
3.82899
-0.438164
-3.80922
3.7909
-0.0420584
3.73843
4.72379
4.28563
-3.85517
-1.95972
-3.87199
3.82397
1.99501
3.84134
7.12462
1.11968
6.72892
-5.97892
-2.52007
-6.16372
9.16664
-8.47816
2.9452
-2.96649
5.07904
2.56735
-4.90177
-2.60629
5.93127
-2.888
-3.04328
-12.1853
10.4975
1.68784
-4.83281
-0.394295
0.218858
-5.49582
-3.83334
5.40967
0.506757
11.0042
7.17088
-5.51134
5.76061
6.16612
6.22322
-0.174348
6.02951
-5.2115
5.40169
-2.56643
-2.83526
4.93287
-5.13064
-1.23085
-5.00686
3.77601
0.412374
1.87266
-1.54108
-2.16298
-0.495153
-2.06118
1.59235
1.0517
1.80332
1.00117
1.78934
-2.872
0.509716
2.36228
-1.87083
-1.97024
-3.45741
-1.16058
4.618
5.39438
1.96894
-5.33942
-0.162719
2.82611
-2.82578
-0.727956
-2.72946
2.01829
-2.74625
-3.40772
-1.83711
5.24483
-3.34572
-0.526262
3.35334
0.495115
-3.76692
-2.08992
3.78343
0.255858
-3.05662
6.11484
-3.05822
-5.01634
2.57331
3.58616
4.56336
-4.84869
2.4692
2.37949
-1.26253
5.99294
0.944223
5.9597
-9.19631
5.93921
7.59741
3.56125
-7.77383
0.756932
-8.43938
9.59921
-8.27547
-1.32375
4.98542
4.61379
5.18668
5.48523
-3.90792
9.0946
-0.936569
-7.3389
9.37595
-5.81469
5.44241
-11.2571
-10.9276
3.58874
-6.90906
8.5027
-1.59364
-2.40525
-5.44264
9.31431
-0.781715
-8.5326
5.61223
-5.30127
-5.28674
10.588
-7.98654
8.72418
-2.62222
-6.10196
-6.64805
-4.05899
6.68041
1.11508
-9.8359
11.7682
-3.01866
5.88837
0.880629
5.88805
3.88612
-6.00844
2.12232
4.10042
-6.72264
2.55868
-8.56712
-4.76985
9.39767
-4.62782
-7.43864
-6.61428
-0.824355
2.0226
9.74562
-6.85185
5.30306
1.54879
3.32535
0.51598
-3.33616
-0.478938
0.329479
4.40282
-4.7323
4.0874
4.13185
3.26999
1.13282
3.8161
2.0253
-3.79602
-0.37133
-3.99233
1.46028
-1.64143
-3.37743
4.83771
-3.83817
0.460738
-2.61718
-3.46421
6.08138
-4.48833
3.04761
3.06723
5.04262
-4.74413
1.27992
-2.33576
-2.40837
2.55825
-4.19968
1.83332
3.00439
4.11558
0.55035
4.71298
4.68469
-7.43596
0.569099
8.12321
-6.83718
1.63644
5.84931
-6.9395
0.325219
-5.8751
1.16464
-6.34311
-5.54499
5.67056
-8.65808
-5.58654
7.16938
-0.440459
-6.77907
-1.54888
-3.97016
-1.78806
-4.1916
-1.78735
-4.069
-5.69527
-1.25628
-4.43898
4.29772
-4.37165
-2.07238
4.6281
0.955913
-5.28089
4.79046
-4.92214
4.53089
0.0845571
3.70634
4.37019
1.85873
-2.44381
4.30255
-5.12324
6.24292
-6.51805
1.39481
3.28
-5.80007
-3.23805
4.69378
4.47285
5.12421
7.46162
-12.6264
5.16473
-9.69414
9.20543
0.488704
-14.0938
4.39963
-6.63214
2.73261
0.212589
2.74103
0.678878
2.33501
-3.01388
-2.28761
-2.25347
-2.1742
-3.21744
5.39164
1.0154
-3.19395
2.17855
-3.29864
4.31403
-0.0632251
-3.13072
5.20296
-2.86796
5.41555
-3.36186
2.05369
3.06331
5.30492
-2.24161
4.18403
-1.61667
1.6397
-3.88131
-1.57773
-2.95951
5.00339
-3.12187
3.58261
-0.27109
3.8537
-3.86664
0.978642
-0.596645
3.5352
3.63202
4.14953
-3.0167
2.77506
-4.39173
-1.10625
-3.84138
-0.836992
-3.3075
-3.5569
6.8644
5.61529
-8.92278
-6.17376
10.0979
-3.92412
7.99243
-5.79408
-2.19835
-4.34429
-4.13387
3.71432
2.31519
10.3076
0.0716246
-5.86571
-5.13988
-4.11529
2.80536
2.59633
-1.91903
3.60687
1.70017
0.172487
0.631546
1.17178
1.88583
-1.25429
0.112825
1.77301
-1.42825
2.10131
0.724804
-2.17656
0.115373
-1.36977
3.38806
0.992516
-2.04422
0.789931
0.921784
-3.48821
4.82673
-2.56736
-2.25937
5.74852
0.916584
-3.48394
4.09028
-3.67791
2.04837
-3.20896
-1.43557
-5.11348
-3.4142
-2.32212
4.50067
-3.06952
5.03845
1.09295
-4.87574
5.96868
-3.32584
1.48873
-2.97268
3.69749
-0.988195
-1.98449
2.6255
2.61933
-2.81486
0.0854062
-0.189366
2.161
-2.35037
-0.585246
-2.45607
-4.56155
4.81741
-2.04951
4.51871
2.25303
-1.89537
6.41408
1.82433
-3.7197
-3.19201
-3.71827
-1.34021
3.22316
-0.972968
-5.87549
-7.07493
5.91126
0.0484443
-9.12545
10.2462
-1.12077
-5.35215
-0.587058
5.57248
-7.47903
0.756388
-4.92035
5.32587
6.27009
6.31854
-8.39248
-0.140122
-4.8911
1.23538
-6.12648
5.84917
-2.97233
6.56107
-7.07818
5.0058
-6.12227
5.23732
-0.889154
5.56955
-3.44724
2.11155
-6.17054
-5.05547
6.9688
-3.52556
7.84943
-4.04379
11.8932
-7.06246
6.90665
4.98658
-1.37408
-5.93234
-6.86
5.48593
0.0466462
5.9347
4.83711
-2.81181
4.46578
2.18597
-4.52173
-2.01371
-6.33877
1.81705
-3.27154
-1.84792
3.66496
3.1947
3.71068
1.25659
-3.23174
6.54962
-7.37397
-1.9218
-3.62319
6.76385
-1.27792
4.0059
-7.62909
-2.33722
5.82254
-1.50729
-4.31525
-0.393648
-5.19289
3.36684
-8.55973
5.29124
-6.84012
1.78653
-8.41868
-3.49435
-4.03653
-1.72962
-3.19252
-5.51681
3.78719
-1.11718
3.67328
-6.80998
5.30269
-2.39546
6.18265
-3.47553
-0.716074
3.83009
0.700802
6.88345
0.446418
-3.68447
-2.84536
4.12305
-1.2777
-0.0399941
-3.11048
1.01257
2.32039
3.42813
-6.09641
0.296334
-3.38813
-3.21267
7.68552
6.88521
12.5005
-0.125857
9.11347
-1.42796
8.98762
3.69625
3.75229
-2.35119
7.51592
4.51321
5.90802
-0.841437
2.89513
1.89959
1.91514
0.910639
2.21843
1.41359
3.19707
0.183189
-2.07028
4.85437
-8.96966
-1.01134
-8.40423
0.789011
5.75874
-4.96973
3.46864
-0.872315
2.19095
-0.0599552
-2.09868
2.15863
-2.89522
-1.92619
-0.153181
-1.54235
2.33228
1.84571
-2.1791
-0.716112
0.329062
-3.74327
2.87989
-2.79449
-0.175157
5.79353
-2.58391
0.233538
-1.09517
-2.22254
-2.71769
2.60232
6.12534
0.288741
3.06712
5.10615
3.01623
0.20442
4.44581
-6.03944
-4.12131
-6.17957
-0.330401
5.24208
2.02503
7.72058
7.01161
5.73369
-1.8954
-9.26937
6.94103
0.574894
7.42973
-3.11448
-5.44525
5.61793
0.624984
-5.17748
-1.66264
-7.1079
-6.533
-0.490991
5.79368
-6.39246
5.67638
3.88832
0.550663
-3.32986
-0.706671
3.61456
0.13773
9.12535
-1.00003
-7.09434
8.09437
-4.75871
3.74737
0.704974
2.9019
2.86361
1.99129
-5.10305
-10.0728
-1.94133
-1.54688
-4.20071
0.41729
-2.263
6.57624
-2.82888
4.37789
5.2655
7.45644
-3.1893
-5.73348
7.11342
-2.73553
4.72091
)
;

boundaryField
{
    wall-4
    {
        type            calculated;
        value           uniform 0;
    }
    velocity-inlet-5
    {
        type            calculated;
        value           uniform -3.75095;
    }
    velocity-inlet-6
    {
        type            calculated;
        value           uniform -5.62643;
    }
    pressure-outlet-7
    {
        type            calculated;
        value           nonuniform List<scalar> 8(6.3975 6.25599 6.62099 6.73908 6.61673 6.63236 6.5728 6.6779);
    }
    wall-8
    {
        type            calculated;
        value           uniform 0;
    }
    frontAndBackPlanes
    {
        type            empty;
    }
}


// ************************************************************************* //
