/*--------------------------------*- C++ -*----------------------------------*\
| =========                 |                                                 |
| \\      /  F ield         | OpenFOAM: The Open Source CFD Toolbox           |
|  \\    /   O peration     | Version:  2412                                  |
|   \\  /    A nd           | Website:  www.openfoam.com                      |
|    \\/     M anipulation  |                                                 |
\*---------------------------------------------------------------------------*/
FoamFile
{
    version     2.0;
    format      ascii;
    arch        "LSB;label=32;scalar=64";
    class       volVectorField;
    location    "7";
    object      U;
}
// * * * * * * * * * * * * * * * * * * * * * * * * * * * * * * * * * * * * * //

dimensions      [0 1 -1 0 0 0 0];

internalField   nonuniform List<vector> 
918
(
(0.985705 -0.00285366 0)
(0.00508496 2.9662 0)
(-0.000794168 1.7004 0)
(0.977012 0.00540404 0)
(-0.00486291 1.66717 -2.09225e-21)
(-0.0071283 2.94885 -2.061e-18)
(0.919969 1.26309 6.18816e-19)
(0.527183 0.279192 -9.84894e-21)
(1.00009 -0.00108245 0)
(0.04677 1.57239 0)
(-0.00563543 1.60471 0)
(0.886147 0.00791637 0)
(0.0114007 2.93023 0)
(0.000360575 2.79597 0)
(-0.0151359 3.18198 9.84769e-19)
(0.00302595 1.61895 -2.33552e-20)
(0.660243 0.125442 5.87759e-19)
(0.234217 1.83501 5.30556e-19)
(0.967417 0.0198364 0)
(0.00103714 1.61879 0)
(0.188037 0.302245 -5.43302e-19)
(1.00105 -0.0038947 0)
(1.00087 -0.00769883 0)
(0.97534 -0.00537252 0)
(0.829511 -0.022287 0)
(0.00222762 2.64704 0)
(-0.0152064 2.91014 7.29894e-19)
(-0.00924919 1.71202 0)
(-0.00153489 1.76659 0)
(-0.00215682 1.72764 0)
(-0.0039689 1.796 0)
(-0.00521381 1.68432 1.65837e-21)
(-0.00593753 1.62551 0)
(-0.0204044 2.98774 -7.28944e-23)
(-0.0165843 3.00516 1.59947e-18)
(0.00204768 2.99994 0)
(0.929691 0.0070632 0)
(0.18384 0.602926 -1.43976e-19)
(0.856295 1.32034 -7.47437e-19)
(1.01526 1.07409 8.15588e-19)
(0.736245 1.52138 -1.39605e-19)
(0.809574 1.48665 8.25599e-19)
(0.577267 0.341188 9.61001e-21)
(0.577883 0.250379 0)
(1.20153 0.57291 0)
(0.531354 0.342373 4.54281e-20)
(0.505395 0.273497 -4.71341e-20)
(0.920727 0.00305946 0)
(1.00104 6.23787e-05 0)
(1.00001 0.000631545 0)
(0.998896 -0.006177 0)
(1.00073 -0.00235942 0)
(1.00048 -0.000704157 0)
(0.0282545 1.55386 -5.46364e-19)
(0.0416772 1.69585 0)
(0.0939345 1.60993 0)
(0.00392026 1.66771 0)
(0.00909687 1.54201 0)
(-0.000939738 1.62602 0)
(-0.0129083 1.67353 0)
(-0.0109285 1.59158 0)
(-0.00684775 1.69112 0)
(0.00138717 1.60707 0)
(0.950617 0.00706095 0)
(0.940672 0.00931377 0)
(0.903954 0.00247199 0)
(0.927481 0.018153 0)
(0.869159 0.0152722 0)
(0.0145485 3.00054 7.57007e-19)
(0.0112768 3.00946 0)
(0.00590807 3.00227 0)
(0.0135755 2.9979 8.4993e-24)
(0.0076698 2.95841 -1.12626e-18)
(0.0148366 2.98145 0)
(0.0111508 2.90261 0)
(0.0251276 2.92988 1.5965e-24)
(0.0042848 2.82508 0)
(0.0310294 2.91539 0)
(-0.00967178 2.74734 0)
(0.336186 3.60858 0)
(-0.128115 3.69824 0)
(0.156451 3.27449 9.16529e-19)
(-0.0054112 2.99145 0)
(-0.00868537 1.76295 0)
(-0.000566921 1.6935 2.30426e-20)
(-0.00172758 1.63094 -2.78682e-20)
(0.704838 0.167648 -2.02096e-19)
(0.676514 0.0909651 -1.9584e-19)
(0.69964 0.19587 -6.08599e-19)
(0.65702 0.158245 -4.11122e-19)
(0.230624 1.31972 0)
(0.311349 1.91358 -6.186e-19)
(0.475339 1.85123 1.00225e-18)
(0.982724 0.0139585 0)
(0.93699 0.0194947 0)
(1.00069 0.000224059 0)
(1.00161 0.00897356 0)
(0.997986 0.0191705 -1.12716e-18)
(0.988729 0.0156849 8.58839e-19)
(-0.0031876 1.6861 0)
(0.000360183 1.62138 0)
(-0.0049744 1.73412 0)
(-0.0054701 1.69699 0)
(-0.000953815 1.62817 0)
(0.311539 0.334346 1.74217e-19)
(0.337173 0.297535 0)
(0.993297 -0.00828635 0)
(0.954353 -0.00318098 0)
(0.901573 0.0106889 0)
(0.886073 0.00427083 0)
(0.859126 -0.0145892 0)
(1.06576 0.00245078 0)
(0.847851 0.0352695 0)
(0.762458 0.0200214 7.82583e-19)
(-0.0367953 2.86364 4.50023e-19)
(0.0438809 2.90699 0)
(0.0578026 2.88218 0)
(-0.0116261 2.70331 0)
(-0.0130359 2.9847 6.79149e-19)
(-0.0186633 2.89565 0)
(-0.0156428 2.98781 -2.13153e-18)
(-0.0130844 2.92469 7.35142e-19)
(2.74443e-05 1.78205 0)
(0.00226894 1.76924 0)
(0.00455285 1.69604 -5.76445e-22)
(0.00169624 1.69183 0)
(0.00640677 1.61959 0)
(0.97066 0.00636344 0)
(0.934711 0.00755599 0)
(0.917509 -0.00959751 0)
(0.969879 0.00499781 0)
(0.925121 -0.00655091 0)
(0.263827 0.896203 1.76463e-19)
(0.364732 1.04309 0)
(0.238292 0.508718 -2.37648e-20)
(0.141714 0.16166 0)
(0.969901 1.13556 -2.33967e-19)
(1.08012 0.902154 5.08052e-19)
(0.445238 1.85568 0)
(0.606011 1.71729 0)
(0.680051 1.69995 0)
(0.410044 0.632075 -3.02722e-19)
(0.626802 0.30034 0)
(0.610373 0.219354 1.19103e-19)
(1.0498 0.963719 0)
(1.12353 0.794608 0)
(1.14387 0.733401 -4.58644e-19)
(1.19069 0.632117 0)
(1.24628 0.420036 6.6638e-20)
(0.966236 -0.00336299 0)
(0.95791 0.00272066 0)
(0.923306 -0.000112446 0)
(0.976058 -0.00176138 0)
(0.95775 0.00174585 0)
(0.928176 0.00397898 0)
(0.999598 0.00157529 0)
(1.00062 0.00230791 0)
(0.999733 0.00117503 0)
(0.0162129 1.59314 2.93134e-19)
(0.03925 1.51826 0)
(0.0158628 1.636 2.37081e-19)
(0.0214722 1.59766 -4.27209e-19)
(0.156041 1.84035 -4.39118e-19)
(0.0430786 1.74474 0)
(0.167821 1.72525 0)
(-0.0125467 1.66646 0)
(-0.00178327 1.56227 0)
(-0.000784768 1.68513 -1.32616e-21)
(0.00191858 1.6192 0)
(-0.000610113 1.69525 -6.82203e-20)
(7.95358e-05 1.62816 -6.26151e-21)
(-0.00952854 1.67854 0)
(-0.0123274 1.67127 0)
(0.000187589 1.57962 0)
(0.00148757 1.69254 0)
(0.00849124 1.6066 0)
(1.00458 0.00713714 0)
(0.96123 -0.00263052 0)
(0.9858 0.0092585 0)
(0.942848 0.0076647 0)
(0.907119 0.0024898 0)
(0.955472 0.00607615 0)
(0.952436 -0.00212857 0)
(0.905193 -0.00534062 0)
(0.00555302 3.06455 -6.82095e-21)
(0.0152859 3.05769 0)
(0.0145397 2.96837 0)
(0.00806121 2.87597 0)
(0.95644 4.05318 0)
(1.26711 3.37585 1.01597e-18)
(0.0743116 3.08414 0)
(-0.0228067 2.91215 0)
(0.00382183 1.75158 0)
(-0.00329258 1.74703 0)
(-0.00191965 1.75166 0)
(-0.00891343 1.78924 5.31882e-21)
(-0.00936034 1.7766 0)
(-0.00675065 1.78005 0)
(0.0033707 1.61755 2.75e-21)
(0.00268931 1.69093 4.20781e-20)
(-0.00500905 1.69556 2.85379e-20)
(0.0050462 1.62262 0)
(0.737127 0.126704 2.97653e-19)
(0.692689 0.0471075 -2.88493e-19)
(0.195865 1.40699 0)
(0.299548 1.25243 -2.36904e-19)
(0.13588 1.44392 -6.93194e-19)
(0.157871 1.37687 6.91612e-19)
(0.904375 0.00154053 0)
(0.958504 0.00667707 0)
(0.969575 0.015825 0)
(0.909886 0.0100103 0)
(0.00235471 1.6896 0)
(-0.00236653 1.68856 0)
(-0.000154707 1.61211 0)
(0.481938 0.358777 4.25645e-19)
(0.425454 0.355066 -5.33217e-19)
(0.446197 0.274435 0)
(1.1814 0.0810382 -1.99293e-21)
(1.16687 0.0364991 0)
(1.09346 0.0396045 0)
(1.01211 0.00855549 0)
(0.751683 0.0882507 0)
(0.78036 0.0816417 -1.25836e-18)
(0.711907 0.0372059 4.79589e-19)
(0.0102118 2.98079 5.19149e-19)
(-0.0322736 2.86732 4.62407e-20)
(0.00358091 3.05045 -1.46412e-20)
(0.0211783 3.04298 5.23771e-19)
(-0.0147854 2.99668 2.4319e-20)
(-0.013163 2.94966 -9.75753e-23)
(-0.0173587 3.01122 -4.54945e-19)
(0.0152303 3.02057 3.31859e-19)
(0.00803077 3.03781 -5.23386e-19)
(0.98811 0.00720697 0)
(0.982494 0.00605583 0)
(0.93904 0.00354075 0)
(0.958354 -5.0769e-05 0)
(0.95982 -0.00978855 0)
(0.90892 -0.012876 0)
(0.959786 0.00606004 0)
(0.959744 -0.00227472 0)
(0.912929 -0.00379785 0)
(0.560098 1.33708 3.75774e-19)
(0.661831 1.4923 0)
(0.169017 0.118403 2.16347e-20)
(0.424061 0.511604 -5.66912e-20)
(0.344921 0.455734 1.49675e-19)
(0.0880939 0.0457783 -3.67663e-19)
(0.434823 0.991554 1.51977e-18)
(0.451435 0.869247 3.43068e-19)
(0.677951 0.245633 -4.23411e-19)
(0.651825 0.274773 1.07883e-19)
(0.632444 0.199509 2.25552e-19)
(1.22982 0.469473 2.75871e-19)
(1.24909 0.256326 2.96423e-19)
(0.00851367 1.67522 1.98572e-19)
(0.00612889 1.6313 0)
(1.04132 0.024051 0)
(1.00769 0.0123979 0)
(0.985728 0.00682417 0)
(0.0101546 3.07567 0)
(0.0203566 2.9444 9.20727e-19)
(0.0164315 2.95653 0)
(0.00591255 2.85056 -9.12963e-19)
(0.00536339 3.09329 2.20639e-19)
(0.00782734 3.08099 0)
(0.723695 1.83351 -2.20095e-19)
(1.26332 2.56677 5.91037e-19)
(0.728857 1.99617 -1.45427e-18)
(0.0205127 2.98128 -4.16396e-19)
(0.0377777 3.00453 0)
(-0.0361749 2.87928 0)
(-0.00372678 1.68571 -8.35215e-21)
(-0.00330904 1.69018 -3.46469e-21)
(-0.00370651 1.6245 -5.42468e-21)
(0.250765 1.35128 7.57831e-19)
(0.346212 1.21618 -5.20906e-19)
(0.028822 1.55894 4.71871e-19)
(0.0796365 1.51582 -5.75449e-19)
(0.0857397 1.45355 6.53207e-20)
(0.00189376 3.11801 -1.33126e-18)
(0.0155303 3.11769 1.42381e-18)
(-0.00872066 2.98036 6.03617e-19)
(-0.00272619 2.97713 -5.50187e-19)
(-0.0218032 2.88225 -6.14765e-19)
(0.00900244 3.09737 -1.62929e-18)
(0.00103992 3.10607 1.5853e-18)
(0.488449 0.858052 0)
(0.522841 0.671381 -6.7131e-19)
(0.326745 0.365086 3.24328e-19)
(0.421438 1.12014 9.99955e-19)
(0.443941 1.01948 -1.54002e-18)
(1.25642 0.17068 -4.76908e-20)
(1.25421 0.307728 0)
(1.24461 0.121346 1.1591e-19)
(-0.00795446 1.68915 -1.69737e-21)
(-0.00935101 1.69183 0)
(-0.00721157 1.62287 0)
(0.306918 1.31623 -2.71198e-19)
(0.373785 1.233 -6.36319e-19)
(0.407339 1.15329 1.15602e-18)
(1.00499 -0.0265546 0)
(1.00501 -0.00993324 2.1052e-19)
(-0.00234986 1.78064 0)
(-0.0105592 1.78755 0)
(1.00241 0.00439425 2.24949e-21)
(0.997987 0.0128431 4.18999e-19)
(-0.00357361 1.78806 -6.91012e-21)
(-0.0044915 1.78844 0)
(0.0430882 3.18405 2.30808e-19)
(0.43098 3.51044 0)
(1.11509 0.633565 5.57104e-20)
(1.01167 0.0156302 -1.65463e-21)
(1.0032 0.00936905 0)
(1.00325 -0.00202743 4.45788e-22)
(0.0583293 1.83556 0)
(0.0587655 1.72125 0)
(0.000430423 1.79732 0)
(0.0150107 1.77966 9.10223e-20)
(-0.00276729 1.77632 4.71326e-20)
(0.993022 0.0227707 2.08022e-21)
(1.04216 0.00328586 0)
(1.06796 0.0278351 0)
(0.00516137 1.7492 0)
(0.00272101 1.77851 0)
(0.000829314 1.78793 0)
(0.20093 1.90682 -2.3837e-19)
(1.00496 -0.0290325 0)
(0.996725 -0.0305066 0)
(1.00858 0.00109618 2.62413e-19)
(1.00267 -0.00869358 -3.15083e-19)
(1.00246 -0.00205233 0)
(0.00812663 1.74746 0)
(-0.000154395 1.77569 0)
(0.00663394 1.75458 0)
(-0.0017047 1.78947 0)
(-0.00853846 1.78523 0)
(-0.00903092 1.78835 0)
(1.01934 -0.000653821 0)
(1.01479 0.00737356 -6.16236e-22)
(0.653207 1.2117 3.73404e-19)
(1.00314 0.00152252 -2.59821e-19)
(1.00438 0.0103207 3.17843e-19)
(1.00072 0.00224071 0)
(1.01181 0.0146027 2.55643e-19)
(1.00437 0.0101392 -3.18261e-19)
(0.991862 0.014905 0)
(0.000716114 1.78562 0)
(-0.00121497 1.78961 1.9809e-20)
(-0.0064979 1.7853 -1.46627e-20)
(1.15555 0.247575 -1.26813e-20)
(1.10001 0.085041 0)
(0.034785 3.07712 -6.53352e-19)
(0.0658927 2.84743 -4.97327e-20)
(0.146467 3.18197 1.07102e-18)
(0.146769 3.20933 -7.8632e-20)
(0.135098 3.23857 0)
(0.0195558 3.13821 1.56197e-19)
(0.077549 3.15525 6.39442e-19)
(0.0685444 3.18146 -2.97695e-19)
(0.0194459 3.13161 0)
(0.695415 0.353337 0)
(0.622435 0.391507 0)
(1.04475 0.640358 -2.13489e-19)
(1.05006 0.788334 -7.22614e-20)
(1.11635 0.54214 0)
(1.16019 0.527478 0)
(1.01277 0.00924816 -4.87373e-19)
(1.01644 0.00354105 -1.73376e-21)
(1.01019 0.00909955 0)
(1.01152 0.00895316 0)
(1.01045 0.00273771 0)
(1.01799 0.00964789 0)
(1.00719 -0.00288866 0)
(1.02224 0.0136904 0)
(1.01763 0.0147093 0)
(1.01605 0.00508275 0)
(0.05115 1.82865 0)
(0.0231761 1.82501 0)
(0.084371 1.86814 0)
(0.0594606 1.87483 0)
(0.0511904 1.71031 0)
(0.0456979 1.69749 -3.13648e-19)
(0.0624537 1.7368 0)
(0.0626205 1.73558 1.63011e-19)
(0.00588813 1.75716 -1.75691e-19)
(-0.00037124 1.79689 0)
(-0.0023563 1.7954 0)
(0.000505585 1.80219 0)
(6.55473e-05 1.81261 0)
(0.00484791 1.77318 -5.33658e-20)
(-0.00328057 1.77889 6.34889e-20)
(0.00734986 1.78564 8.41946e-20)
(0.00215288 1.7834 0)
(-0.00257901 1.77858 -1.09375e-19)
(0.000782816 1.77549 -6.72198e-20)
(0.00369694 1.7691 4.17259e-20)
(-0.00806114 1.77069 -8.66512e-20)
(0.00225689 1.7786 -1.00819e-19)
(1.0033 0.0169147 4.6104e-19)
(1.00771 0.00739797 2.94225e-21)
(1.00105 0.0198987 -4.9052e-19)
(0.982369 0.0120334 6.11503e-19)
(1.04048 0.00770059 0)
(1.04429 -0.00291334 0)
(1.05722 0.0267564 0)
(1.04227 0.00112412 0)
(1.06047 0.0129841 0)
(1.08507 0.0699222 0)
(1.06746 0.0420671 0)
(1.0904 0.0339996 0)
(0.000267704 1.78526 -2.13683e-21)
(0.0141204 1.7552 0)
(-0.000984842 1.77417 0)
(0.004942 1.78028 1.86371e-20)
(0.00934537 1.7793 -8.67902e-22)
(0.0130395 1.753 2.2657e-20)
(0.00516493 1.75546 -2.30046e-20)
(-0.00226319 1.78216 0)
(-0.00166139 1.78077 0)
(-0.00286261 1.777 0)
(-0.00151435 1.7889 0)
(-0.00333692 1.78751 0)
(0.301445 1.87877 3.87412e-19)
(0.311441 1.8577 1.92898e-19)
(0.30543 1.60263 -1.87266e-19)
(0.161891 1.63395 4.66264e-19)
(0.228664 1.72603 1.2149e-19)
(1.00217 0.0029751 0)
(0.996898 -0.0235459 0)
(0.98774 -0.0203974 0)
(1.02618 -0.0116708 0)
(1.01576 -0.0182359 0)
(1.00972 -0.0206915 0)
(1.00497 -0.0217648 0)
(1.00798 -0.0104155 0)
(1.01644 0.00341673 4.56733e-19)
(1.01988 0.00139035 -5.69656e-19)
(1.01431 0.00824319 -4.4184e-19)
(1.01341 0.0037815 5.60134e-19)
(0.654896 1.3351 0)
(0.545878 1.47736 3.86153e-19)
(0.775523 1.13821 2.71913e-19)
(0.833605 1.11048 -3.64115e-19)
(0.919738 2.69042 -9.92158e-19)
(0.835915 0.11352 3.00007e-19)
(1.10504 0.0889551 0)
(1.13993 0.16316 1.36233e-20)
(1.14123 0.145971 1.46747e-21)
(0.970754 0.10287 0)
(0.116105 2.9517 3.37743e-19)
(0.108924 2.85901 -8.76392e-19)
(-0.000971469 2.40147 6.03253e-19)
(0.105454 0.184796 -2.45364e-19)
(0.375952 3.43414 -3.49848e-19)
(0.211333 3.30879 0)
(0.256734 3.36328 4.55557e-19)
(0.261806 3.00935 -1.25253e-18)
(0.353124 3.17487 0)
(0.00529539 3.12104 3.29599e-20)
(0.015758 3.12904 -4.04142e-19)
(0.0128075 3.12526 5.94818e-19)
(0.0353565 3.13853 0)
(0.0336271 3.14926 0)
(1.12233 2.6938 0)
(0.623731 0.797101 -2.4761e-19)
(0.947095 0.939317 -1.75536e-19)
(0.898983 0.976598 0)
(0.75715 0.922512 6.99562e-20)
(1.00418 0.821478 2.13048e-20)
(0.379587 0.479096 -6.96045e-19)
(0.719837 0.340097 -2.41284e-20)
(0.736591 0.308236 2.30928e-19)
(0.621592 0.432298 1.99404e-20)
(0.558567 0.425366 -8.28303e-19)
(0.692146 0.372421 0)
(0.692232 0.427644 3.8515e-19)
(0.684937 0.411312 0)
(0.642023 0.41717 0)
(0.661552 0.37697 0)
(0.772361 0.55219 1.20487e-19)
(1.15804 0.261772 -4.75966e-20)
(1.1497 0.384745 0)
(1.18691 0.353058 0)
(0.800093 0.215252 3.50923e-19)
(0.789615 0.520028 -1.94014e-19)
(0.701747 0.476268 -3.11198e-19)
(0.8804 0.405206 -2.94474e-19)
(1.02108 -0.0053164 3.1183e-19)
(1.01826 -0.00325099 -3.26756e-19)
(1.01946 -0.00406444 0)
(1.02132 0.00628086 0)
(1.0166 0.0123884 -2.98739e-19)
(1.02106 0.00449291 2.90476e-19)
(1.01348 0.00179182 0)
(1.01142 0.0021567 0)
(1.02573 0.00556985 0)
(1.02242 -0.00085303 0)
(1.02494 0.00498765 0)
(1.02779 0.00280577 0)
(0.00440871 1.82286 0)
(-0.00657436 1.82003 0)
(0.11949 1.85317 -8.15999e-22)
(0.19432 1.88415 1.22357e-19)
(0.0888023 1.90502 2.68342e-19)
(0.111857 1.90276 -1.37004e-19)
(0.119265 1.87113 0)
(0.106721 1.77019 -1.0917e-19)
(0.108455 1.77574 0)
(0.223131 1.71689 -1.76206e-19)
(0.186107 1.67582 5.63242e-19)
(0.130161 1.80092 9.94683e-20)
(0.189962 1.8473 3.96147e-20)
(0.149591 1.86147 3.1705e-20)
(0.223706 1.79331 -1.12427e-19)
(0.179848 1.76486 1.10064e-19)
(0.182659 1.75168 1.06962e-19)
(0.0098033 1.76678 -4.96558e-20)
(0.0213458 1.7521 0)
(0.0586685 1.75057 1.88906e-19)
(0.021263 1.74668 0)
(0.0575179 1.74319 -1.90464e-19)
(0.0374284 1.75064 0)
(-0.00236388 1.76554 -4.2164e-20)
(0.00269122 1.76746 0)
(-0.00389796 1.77224 0)
(-0.00322188 1.76734 4.81823e-20)
(0.0100557 1.77816 1.85544e-21)
(0.000170265 1.76828 2.01705e-19)
(0.00347509 1.77502 1.38806e-21)
(-0.00783541 1.76437 3.82778e-20)
(-0.00554126 1.76315 -2.31151e-20)
(-0.00147355 1.7931 0)
(-0.00147308 1.79131 0)
(0.0144987 1.78051 1.1904e-19)
(0.00425456 1.76956 8.22672e-20)
(0.00444128 1.77062 -1.15824e-19)
(0.0256617 1.78919 0)
(0.00174437 1.75722 -6.94351e-20)
(0.00252109 1.76531 3.26639e-20)
(0.00199044 1.76766 -9.53021e-21)
(-0.00823761 1.76787 -4.63571e-20)
(0.00128904 1.77596 -1.48426e-20)
(-0.0036068 1.77801 7.248e-20)
(1.01259 0.000195397 -3.05809e-19)
(1.01298 0.003829 3.03014e-19)
(1.01275 -0.000412283 0)
(0.989424 0.0662734 4.58019e-19)
(0.978655 0.0246992 -5.15181e-19)
(0.950096 0.0151393 5.92017e-19)
(0.987794 0.0878396 -5.96109e-20)
(1.02489 0.00429004 0)
(1.03251 0.0110471 2.65853e-19)
(1.03316 0.00428031 -2.64052e-19)
(1.02025 0.0307004 -1.55574e-20)
(1.02478 0.015989 1.37601e-19)
(1.00167 0.0294812 0)
(0.989836 0.0254941 -4.72444e-20)
(1.00629 0.0182855 0)
(1.00214 0.0245728 0)
(1.01496 0.0025538 0)
(1.01558 0.00437348 0)
(1.00328 0.0162526 1.0091e-19)
(1.00339 0.0194879 -2.22804e-19)
(1.00013 0.0260454 -1.07014e-19)
(0.988987 0.0165731 -1.18764e-19)
(0.996882 0.04464 2.16091e-19)
(1.03834 0.0423837 0)
(1.03243 0.094128 0)
(0.00862693 1.75817 -2.74782e-20)
(0.0215002 1.75557 -2.5203e-21)
(0.0187586 1.7522 0)
(0.0112053 1.77232 2.85517e-20)
(0.00851424 1.77747 4.39253e-21)
(0.00961969 1.77672 -4.69034e-21)
(0.00302563 1.77726 6.10775e-20)
(0.00401239 1.77272 -3.5971e-21)
(0.00383849 1.77296 1.84294e-20)
(0.00832004 1.77558 -2.9811e-20)
(0.00615845 1.77659 -2.97965e-21)
(0.00321976 1.77819 4.17125e-22)
(0.0100095 1.76929 2.88668e-20)
(0.258576 1.79372 -1.60829e-19)
(0.230912 1.78606 9.14377e-20)
(0.532643 1.61162 -3.76e-19)
(0.405558 1.79505 -1.85906e-19)
(0.445361 1.70875 0)
(0.351126 1.59942 1.92412e-19)
(0.391122 1.5614 2.78078e-19)
(0.208983 1.63407 4.21505e-20)
(0.205391 1.62831 -6.32877e-19)
(0.272164 1.63697 5.09229e-19)
(0.287538 1.63093 0)
(0.223612 1.63568 -3.91646e-19)
(0.0708016 1.67547 8.07231e-19)
(0.141174 1.66847 -4.2124e-20)
(0.0741151 1.66936 -1.09912e-18)
(0.805285 1.53663 7.27269e-19)
(0.629919 1.50206 0)
(1.03531 -0.00983547 1.02814e-20)
(1.02011 0.00118989 -8.84819e-21)
(1.02274 0.0184955 -1.52899e-19)
(1.02989 0.0100025 1.52288e-19)
(1.0346 -0.00567353 0)
(0.299326 1.20457 0)
(0.289665 1.06332 0)
(0.618943 0.950323 0)
(0.477164 0.829258 0)
(0.951032 2.67417 6.21919e-20)
(0.841312 2.3454 0)
(0.412575 2.67132 7.56749e-22)
(0.459817 2.06064 0)
(0.547659 2.2461 -4.62589e-19)
(0.51797 2.36744 0)
(0.846303 0.136568 0)
(0.825978 0.161166 8.66981e-20)
(0.911895 0.109883 4.37261e-19)
(0.858422 0.114163 -1.73616e-19)
(0.840803 0.0878245 -5.38631e-19)
(1.00112 0.197154 -2.78004e-19)
(0.914291 0.283216 -1.26344e-20)
(0.852078 0.262856 4.05198e-19)
(0.920407 0.193273 3.07411e-19)
(0.937645 0.145081 -5.55351e-19)
(0.914306 0.148437 7.14709e-20)
(0.906223 0.214513 -1.44646e-19)
(0.912317 0.176238 0)
(0.967153 0.132852 -2.64642e-19)
(0.971379 0.135287 0)
(0.968587 0.176782 0)
(1.04813 0.0993109 9.27318e-20)
(0.994816 0.128769 -1.37832e-20)
(0.996974 0.194135 -1.3908e-19)
(1.05803 0.177428 0)
(1.01003 0.0260996 2.34304e-19)
(1.00326 0.0367286 2.81345e-19)
(1.00927 0.0294545 -2.27307e-19)
(1.01383 0.0530102 -1.89599e-19)
(1.00268 0.0625236 -3.21705e-19)
(0.944666 0.0899681 0)
(0.952296 0.0808712 0)
(0.940647 0.0410634 -2.13177e-19)
(0.91102 0.0575335 9.04622e-20)
(1.009 0.0908686 2.70276e-19)
(0.997932 0.10769 -2.79235e-19)
(1.00656 0.118507 2.46317e-19)
(1.00223 0.122443 0)
(1.00991 0.090371 0)
(1.0005 0.081024 -1.18096e-19)
(1.01089 0.0848747 -2.16052e-19)
(0.255947 1.70704 -4.61081e-19)
(0.475391 2.67854 4.24589e-19)
(0.933578 3.10382 3.9835e-19)
(1.17693 3.31916 -1.17519e-19)
(1.06876 2.89442 1.06593e-18)
(1.16935 2.85561 -4.13835e-19)
(0.993698 2.31678 2.40359e-20)
(1.12572 3.24082 4.41533e-19)
(1.10632 3.22004 -6.28789e-19)
(1.19152 3.43447 -3.16488e-19)
(1.35097 3.13568 4.43425e-19)
(1.37576 2.9844 0)
(0.621183 0.82136 4.15905e-21)
(0.125523 1.24764 4.60524e-19)
(0.43803 0.632163 4.46799e-19)
(0.244398 0.37473 4.73171e-19)
(0.552538 0.448852 4.67223e-19)
(0.547455 0.494347 -7.46058e-19)
(0.5386 0.539697 6.13491e-19)
(0.493033 0.503138 -2.60545e-19)
(0.477708 0.443462 5.70063e-19)
(0.80421 0.251591 6.02934e-19)
(0.758968 0.297396 0)
(0.768478 0.272909 1.24783e-20)
(0.682191 0.500424 1.99069e-19)
(0.652981 0.482224 -7.35202e-19)
(0.582841 0.519117 2.42544e-20)
(0.626217 0.474372 0)
(0.666276 0.684142 1.27362e-19)
(0.815327 0.735572 6.25755e-21)
(0.743045 0.829031 -2.14221e-20)
(0.834579 0.688882 -1.27866e-20)
(0.877223 0.794538 1.67256e-20)
(0.871047 0.767052 -1.71659e-20)
(0.797293 0.570568 -2.10138e-19)
(0.888591 0.637583 1.19881e-20)
(0.962243 0.656351 0)
(0.946482 0.635609 -1.77829e-20)
(0.94233 0.294443 7.30812e-20)
(1.07167 0.282694 2.19748e-20)
(0.981208 0.238105 1.1373e-19)
(0.933163 0.328783 -1.60814e-19)
(0.978257 0.387175 0)
(1.02931 0.380999 0)
(0.834793 0.336974 1.0301e-20)
(0.818972 0.299346 0)
(0.841503 0.274762 2.05168e-19)
(0.834024 0.270527 -5.69048e-21)
(0.871944 0.408007 8.03913e-19)
(0.823668 0.48232 2.02952e-19)
(0.822723 0.443764 -2.69427e-19)
(0.755383 0.418456 -2.90662e-19)
(0.737092 0.418874 1.95733e-19)
(0.720109 0.409207 -1.89995e-19)
(1.01682 0.0123415 2.46275e-19)
(1.01581 0.00429481 0)
(1.01519 0.0150616 1.68049e-19)
(1.01319 0.0139105 -3.7328e-21)
(1.01534 0.0064752 1.79083e-19)
(1.01615 0.00649004 -3.81911e-19)
(1.01482 0.000364272 0)
(1.01585 -0.00519674 -7.91964e-20)
(1.01957 -3.17275e-05 1.98375e-19)
(1.0206 -0.00366847 -1.01653e-19)
(1.02029 -0.00289467 7.34385e-20)
(-0.00726915 1.81017 0)
(-0.00638758 1.77437 0)
(-0.00869605 1.8167 0)
(-0.00768517 1.81451 0)
(0.0444721 1.80166 6.11711e-20)
(0.0627514 1.80923 -1.62782e-20)
(0.0878237 1.78366 -3.73014e-20)
(0.0904618 1.80693 -1.57071e-20)
(0.0104702 1.7835 -7.79587e-20)
(0.0129458 1.78676 5.64208e-20)
(0.034537 1.80068 -1.67991e-20)
(0.00580006 1.80369 2.67627e-20)
(-0.00100165 1.78866 -2.61875e-21)
(-0.00668951 1.7825 7.62484e-21)
(0.0666983 1.75932 -2.00882e-19)
(0.0749868 1.75267 0)
(0.0760782 1.74844 1.18287e-19)
(0.100981 1.7715 7.76553e-20)
(0.131164 1.72639 -8.59056e-20)
(0.103449 1.67016 0)
(0.113854 1.65305 -5.91966e-19)
(0.160874 1.66265 4.15241e-19)
(0.121422 1.73178 -3.17302e-19)
(0.0962027 1.73082 1.32607e-19)
(0.0558167 1.69798 0)
(0.0133433 1.77338 -1.42679e-19)
(0.0143764 1.77335 -1.69927e-19)
(0.0140255 1.77531 0)
(0.0146503 1.77353 -4.44802e-21)
(0.0120592 1.76993 7.23768e-20)
(-0.000986674 1.77594 7.70771e-21)
(0.00257618 1.7846 -1.23017e-19)
(0.0010108 1.77633 3.12838e-20)
(-0.00687645 1.76088 4.37281e-20)
(-0.000317191 1.76371 0)
(0.0012541 1.78236 0)
(-0.00287234 1.78998 3.28197e-20)
(0.00061914 1.78895 -9.91543e-21)
(0.00200923 1.78774 0)
(0.000862458 1.79072 2.60412e-20)
(-0.00311479 1.7885 -5.24588e-20)
(1.00901 0.0154414 0)
(1.00916 0.0191401 -2.51178e-20)
(1.00569 0.0156949 -1.82426e-19)
(1.01158 0.0229568 0)
(1.01302 0.0266063 0)
(1.00562 0.00932373 -6.09347e-21)
(1.00879 0.0078785 2.94434e-19)
(1.00836 0.00725015 3.64279e-19)
(1.01838 0.00505559 0)
(1.01829 0.00472981 0)
(1.00488 0.016323 1.84155e-19)
(1.00455 0.0131995 0)
(1.01358 0.0107414 0)
(-0.000241175 1.7546 0)
(0.000898386 1.76271 2.24298e-21)
(0.0019823 1.75328 1.76622e-20)
(-0.00140117 1.78844 0)
(-0.00247042 1.77512 2.19817e-20)
(0.000255273 1.78517 -9.78475e-21)
(-0.000175081 1.78953 0)
(0.288782 1.81646 0)
(0.226222 1.78643 -2.02114e-19)
(0.222977 1.77166 0)
(0.24056 1.78995 1.77105e-20)
(0.267406 1.71974 0)
(0.265833 1.76964 -2.23425e-20)
(0.821295 2.16809 -1.45979e-20)
(0.817325 1.56011 -9.31204e-19)
(0.877601 1.56787 5.39456e-19)
(0.666636 1.50043 2.60354e-19)
(0.624416 1.77314 0)
(0.628309 1.91428 0)
(0.780086 1.5122 0)
(0.733931 1.42742 -9.36857e-19)
(0.40324 1.88583 -4.96e-19)
(0.57684 1.7444 -1.49765e-19)
(0.490178 1.96085 1.25437e-19)
(0.477257 1.55348 0)
(0.597915 1.51198 0)
(0.535689 1.53102 -3.12833e-19)
(0.55424 1.68777 0)
(0.625538 0.77439 0)
(0.710015 0.688845 6.367e-19)
(0.738274 0.684538 3.26954e-20)
(0.410928 0.850818 0)
(0.734935 0.943429 -1.02433e-18)
(0.763763 0.843189 4.77464e-20)
(0.722254 0.899475 0)
(0.71003 0.905067 -9.67434e-20)
(0.650925 0.764346 0)
(0.695543 0.789111 0)
(0.873622 2.99303 2.45045e-19)
(0.905818 3.09438 1.836e-19)
(0.543417 2.90025 -6.02089e-19)
(0.414481 2.78559 -2.02578e-21)
(0.856088 2.71557 0)
(0.795495 2.66555 4.15103e-21)
(0.853433 2.33894 2.17479e-19)
(0.868269 2.03574 9.44286e-21)
(0.127164 2.22985 0)
(0.0910696 1.56455 4.02736e-19)
(0.121418 1.53422 0)
(0.889193 0.189464 0)
(0.829473 0.18144 0)
(0.793165 0.181417 0)
(0.880725 0.209091 -3.21954e-19)
(0.821651 0.210157 2.0407e-19)
(0.907837 0.0610252 -1.8696e-19)
(0.905004 0.0948343 0)
(0.900447 0.0953936 8.3558e-20)
(0.864646 0.086477 3.43854e-19)
(0.876135 0.0644507 -2.12099e-19)
(1.18246 3.48933 -7.34567e-19)
(1.21698 3.45108 0)
(1.19195 3.46305 -1.46556e-18)
(0.718025 3.59263 1.51649e-18)
(0.979775 3.04297 3.12494e-19)
(0.655115 0.935733 2.6208e-19)
(0.710498 0.795842 0)
(0.463597 0.628142 -9.94839e-20)
(0.513956 0.733192 -4.06256e-19)
(0.48206 0.629186 -1.29934e-19)
(0.486339 0.57964 1.57164e-19)
(0.60956 0.520783 3.08568e-19)
(0.663191 0.516009 0)
(0.609067 0.646018 0)
(0.548397 0.611756 0)
(0.9639 0.563171 -4.56439e-20)
(0.824856 0.510227 -1.95205e-19)
(0.844127 0.545532 8.96487e-20)
(0.865825 0.504787 -1.45867e-19)
(0.997868 0.465361 0)
(0.99845 0.536604 -7.83764e-21)
(0.784066 0.380931 -4.32378e-19)
(0.791811 0.374366 6.42571e-19)
(0.759682 0.374311 3.37105e-19)
(0.746547 0.358863 -3.73682e-19)
(0.80446 0.322273 -2.79659e-19)
(0.75517 0.32205 3.44074e-19)
(1.01377 -0.000327213 -1.91366e-19)
(1.01771 -0.000961681 3.88584e-19)
(1.01004 0.0062713 2.40723e-19)
(1.00868 0.00938348 -2.94201e-19)
(1.00166 0.0174703 0)
(1.01119 0.00580446 -4.59432e-19)
(0.0432127 1.78648 3.18669e-20)
(0.0351546 1.78615 0)
(0.0779196 1.77326 2.32176e-19)
(0.0885028 1.78704 -2.07106e-19)
(0.0795485 1.79442 6.88553e-20)
(0.0632088 1.79084 0)
(-0.0100024 1.76339 0)
(-0.00536623 1.77244 -1.22194e-20)
(-0.00395792 1.77929 1.1244e-20)
(-0.00256523 1.77359 3.74584e-21)
(-0.00561985 1.75952 -2.23103e-20)
(-0.00539567 1.7634 -3.49318e-20)
(0.169665 2.01725 -3.96451e-19)
(0.188267 1.953 -4.38256e-19)
(0.207719 1.78114 -6.6017e-20)
(0.232808 1.90722 1.8175e-20)
(0.293552 1.35522 0)
(0.283319 1.62423 1.89061e-19)
(0.287801 1.49079 -1.82603e-19)
(0.149691 1.72279 6.26409e-20)
(0.118852 1.6942 0)
(0.1076 1.56043 0)
(0.397372 1.78664 7.50634e-19)
(0.427028 1.61649 1.33299e-18)
(0.507224 1.67719 -9.00342e-19)
(0.382335 1.62658 -1.62817e-19)
(0.322376 1.70978 2.71497e-19)
(0.273067 1.63327 -6.67175e-19)
(0.858487 1.74839 -2.90293e-19)
(0.879592 1.97199 0)
(0.895377 1.74205 7.08293e-20)
(0.81804 2.43557 0)
(0.803442 2.3334 0)
(0.902951 2.21799 3.64776e-19)
(1.0937 3.22781 6.45627e-19)
(0.966019 3.00093 -4.86024e-19)
(0.348869 0.977202 0)
(0.498329 0.939266 -2.08896e-19)
(0.717613 0.860421 -6.63224e-19)
(0.627564 1.92219 0)
(0.539715 2.70953 -2.1446e-19)
(0.480731 2.47741 0)
(0.693232 0.670383 -2.6827e-19)
(0.747869 0.666353 3.73317e-19)
(0.759447 0.593405 2.82269e-19)
(0.64729 0.630037 4.50268e-20)
(0.674143 0.598816 -1.95258e-19)
(1.06867 2.89597 -4.63719e-19)
(1.02497 3.0436 6.48193e-19)
(0.893965 2.34386 -5.49691e-19)
(0.979018 1.95103 3.70712e-19)
(0.816044 2.48376 1.20273e-18)
(1.02149 2.72203 1.01804e-19)
(0.822074 2.89573 -6.88248e-19)
(0.952035 2.09774 -4.95778e-20)
(0.805255 2.01597 -1.48475e-18)
)
;

boundaryField
{
    wall-4
    {
        type            noSlip;
    }
    velocity-inlet-5
    {
        type            fixedValue;
        value           uniform (1 0 0);
    }
    velocity-inlet-6
    {
        type            fixedValue;
        value           uniform (0 3 0);
    }
    pressure-outlet-7
    {
        type            zeroGradient;
    }
    wall-8
    {
        type            noSlip;
    }
    frontAndBackPlanes
    {
        type            empty;
    }
}


// ************************************************************************* //
