/*--------------------------------*- C++ -*----------------------------------*\
| =========                 |                                                 |
| \\      /  F ield         | OpenFOAM: The Open Source CFD Toolbox           |
|  \\    /   O peration     | Version:  2412                                  |
|   \\  /    A nd           | Website:  www.openfoam.com                      |
|    \\/     M anipulation  |                                                 |
\*---------------------------------------------------------------------------*/
FoamFile
{
    version     2.0;
    format      ascii;
    arch        "LSB;label=32;scalar=64";
    class       volVectorField;
    location    "7";
    object      U;
}
// * * * * * * * * * * * * * * * * * * * * * * * * * * * * * * * * * * * * * //

dimensions      [0 1 -1 0 0 0 0];

internalField   nonuniform List<vector> 
38
(
(0.977013 0.0054055 0)
(0.967423 0.0198292 0)
(0.982721 0.0139565 0)
(0.937006 0.0194892 0)
(1.00069 0.000223968 0)
(1.00161 0.0089713 0)
(0.997982 0.0191677 -1.12704e-18)
(0.988731 0.0156851 8.58747e-19)
(0.917549 -0.00958986 0)
(0.999598 0.00157366 0)
(0.999733 0.00117541 0)
(0.907163 0.00247776 0)
(0.955488 0.00605786 0)
(0.952457 -0.00212434 0)
(0.905237 -0.005346 0)
(0.904417 0.00151979 0)
(0.958499 0.00666227 0)
(0.969581 0.0158184 0)
(0.909907 0.00999084 0)
(0.958366 -6.96214e-05 0)
(0.95983 -0.00978573 0)
(0.90895 -0.0128882 0)
(0.959792 0.00605909 0)
(0.959763 -0.00227216 0)
(0.912954 -0.00378152 0)
(1.01478 0.00737172 -6.15962e-22)
(1.00768 0.00738913 2.93944e-21)
(1.01642 0.00340317 4.56681e-19)
(1.01985 0.00138698 -5.69601e-19)
(1.0143 0.00824471 -4.4179e-19)
(1.01339 0.00378707 5.60073e-19)
(1.01258 0.000197745 -3.05776e-19)
(1.01295 0.00381732 3.0298e-19)
(1.01273 -0.000422169 0)
(1.01556 0.0043809 0)
(1.01836 0.00506652 0)
(1.01827 0.00473577 0)
(1.01355 0.0107443 0)
)
;

boundaryField
{
    wall-4
    {
        type            noSlip;
    }
    velocity-inlet-5
    {
        type            fixedValue;
        value           uniform (1 0 0);
    }
    velocity-inlet-6
    {
        type            fixedValue;
        value           nonuniform List<vector> 0();
    }
    pressure-outlet-7
    {
        type            zeroGradient;
    }
    wall-8
    {
        type            noSlip;
    }
    frontAndBackPlanes
    {
        type            empty;
    }
    procBoundary3to0
    {
        type            processor;
        value           nonuniform List<vector> 2((1.00834 0.00726253 3.64236e-19) (1.00452 0.0132016 0));
    }
    procBoundary3to4
    {
        type            processor;
        value           nonuniform List<vector> 3((0.997983 0.0128443 -4.25299e-19) (1.00241 0.00439598 2.25024e-21) (1.00062 0.00230702 0));
    }
    procBoundary3to5
    {
        type            processor;
        value           nonuniform List<vector> 7((0.991846 0.0148996 0) (1.0164 0.00356264 6.04128e-19) (1.01165 0.0156234 -1.65287e-21) (1.01943 -0.00406498 0) (1.0114 0.00213741 0) (1.02104 -0.00532374 -3.11801e-19) (1.01494 0.00255259 0));
    }
    procBoundary3to11
    {
        type            processor;
        value           nonuniform List<vector> 2((0.904013 0.00247561 0) (1.00326 0.0169083 4.60977e-19));
    }
}


// ************************************************************************* //
