/*--------------------------------*- C++ -*----------------------------------*\
| =========                 |                                                 |
| \\      /  F ield         | OpenFOAM: The Open Source CFD Toolbox           |
|  \\    /   O peration     | Version:  2412                                  |
|   \\  /    A nd           | Website:  www.openfoam.com                      |
|    \\/     M anipulation  |                                                 |
\*---------------------------------------------------------------------------*/
FoamFile
{
    version     2.0;
    format      ascii;
    arch        "LSB;label=32;scalar=64";
    class       volVectorField;
    location    "1";
    object      U;
}
// * * * * * * * * * * * * * * * * * * * * * * * * * * * * * * * * * * * * * //

dimensions      [0 1 -1 0 0 0 0];

internalField   nonuniform List<vector> 
38
(
(1.00898 -0.00251528 0)
(1.13825 -0.0164501 0)
(1.03085 0.0172484 0)
(1.01886 0.00618927 0)
(1.18855 0.102915 1.21738e-19)
(1.24278 0.0401182 0)
(1.1244 0.043786 0)
(1.06923 0.00195477 0)
(1.07409 0.0289343 0)
(1.04953 0.00752519 0)
(1.03502 -0.00475724 0)
(1.25504 0.185054 4.45721e-19)
(1.32244 0.245266 -4.00052e-19)
(1.08014 0.0447324 0)
(1.15903 0.29297 2.50893e-18)
(1.11325 0.0814748 0)
(1.03538 0.0268733 0)
(1.06375 0.00588078 0)
(1.02185 -0.00841505 0)
(1.08012 0.0657519 0)
(1.0786 0.0316387 0)
(1.04992 0.0261064 0)
(1.11994 0.0933863 0)
(1.15136 0.226987 -2.05403e-18)
(1.11848 0.102238 -8.46501e-20)
(0.967749 0.00392211 -1.21454e-19)
(0.98555 0.0666106 1.01886e-18)
(1.05006 0.169513 -2.6517e-18)
(0.806197 0.347118 -6.18176e-20)
(0.924783 0.125537 2.00525e-18)
(0.983115 0.187589 0)
(0.968723 0.166245 0)
(1.01468 0.178971 8.62435e-19)
(0.962952 0.274208 -1.49831e-20)
(0.9074 0.144768 -4.88291e-19)
(0.98359 0.129994 0)
(0.85097 0.323308 6.22047e-19)
(1.05604 0.256196 1.06064e-18)
)
;

boundaryField
{
    wall-4
    {
        type            noSlip;
    }
    velocity-inlet-5
    {
        type            fixedValue;
        value           nonuniform List<vector> 0();
    }
    velocity-inlet-6
    {
        type            fixedValue;
        value           nonuniform List<vector> 0();
    }
    pressure-outlet-7
    {
        type            zeroGradient;
    }
    wall-8
    {
        type            noSlip;
    }
    frontAndBackPlanes
    {
        type            empty;
    }
    procBoundary9to0
    {
        type            processor;
        value           nonuniform List<vector> 2((1.01202 0.00128371 0) (1.05462 0.0752275 0));
    }
    procBoundary9to6
    {
        type            processor;
        value           nonuniform List<vector> 3((1.29869 0.366471 0) (1.19574 0.250582 -2.38002e-20) (1.00462 0.376693 1.09693e-18));
    }
    procBoundary9to8
    {
        type            processor;
        value           uniform (0.881426 0.424594 1.22918e-18);
    }
    procBoundary9to10
    {
        type            processor;
        value           nonuniform List<vector> 3((0.877778 0.229549 1.98251e-18) (0.744169 0.297934 9.23395e-19) (0.949069 0.124716 1.48489e-18));
    }
    procBoundary9to11
    {
        type            processor;
        value           nonuniform List<vector> 6((0.9791 0.0201882 0) (1.00493 0.0598101 0) (0.962119 0.0779446 7.31304e-19) (0.980276 -0.014653 0) (1.03663 0.111966 -1.63352e-18) (0.95452 0.117328 7.06805e-19));
    }
}


// ************************************************************************* //
