/*--------------------------------*- C++ -*----------------------------------*\
| =========                 |                                                 |
| \\      /  F ield         | OpenFOAM: The Open Source CFD Toolbox           |
|  \\    /   O peration     | Version:  2412                                  |
|   \\  /    A nd           | Website:  www.openfoam.com                      |
|    \\/     M anipulation  |                                                 |
\*---------------------------------------------------------------------------*/
FoamFile
{
    version     2.0;
    format      ascii;
    arch        "LSB;label=32;scalar=64";
    class       surfaceScalarField;
    location    "2";
    object      phi;
}
// * * * * * * * * * * * * * * * * * * * * * * * * * * * * * * * * * * * * * //

dimensions      [0 3 -1 0 0 0 0];

oriented        oriented;

internalField   nonuniform List<scalar> 
47
(
3.75095
1.88491
1.86605
-0.536772
4.28772
3.21418
3.21418
-1.88627
3.77118
1.86468
-1.8375
6.12523
-1.91345
3.7795
3.23437
-0.0201895
3.23437
3.16142
0.0729505
-3.16142
-0.0288785
3.74177
-4.1531
4.13291
1.97213
1.75858
1.99408
1.84435
1.92682
3.27323
0.859679
3.34618
-1.93557
3.77992
-1.84393
3.81606
-1.85947
-1.8823
-3.96656
-2.3671
3.99543
-0.649254
0.0804413
3.8965
4.75618
4.10692
4.28854
)
;

boundaryField
{
    wall-4
    {
        type            calculated;
        value           uniform 0;
    }
    velocity-inlet-5
    {
        type            calculated;
        value           uniform -3.75095;
    }
    velocity-inlet-6
    {
        type            calculated;
        value           nonuniform List<scalar> 0();
    }
    pressure-outlet-7
    {
        type            calculated;
        value           nonuniform List<scalar> 0();
    }
    wall-8
    {
        type            calculated;
        value           nonuniform List<scalar> 0();
    }
    frontAndBackPlanes
    {
        type            empty;
    }
    procBoundary4to1
    {
        type            processor;
        value           nonuniform List<scalar> 2(3.1903 6.33366);
    }
    procBoundary4to3
    {
        type            processor;
        value           nonuniform List<scalar> 3(-2.45359 -3.75266 -1.87709);
    }
    procBoundary4to5
    {
        type            processor;
        value           nonuniform List<scalar> 6(4.21218 3.78629 3.87639 3.69948 -0.181619 1.92144);
    }
}


// ************************************************************************* //
