/*--------------------------------*- C++ -*----------------------------------*\
| =========                 |                                                 |
| \\      /  F ield         | OpenFOAM: The Open Source CFD Toolbox           |
|  \\    /   O peration     | Version:  2412                                  |
|   \\  /    A nd           | Website:  www.openfoam.com                      |
|    \\/     M anipulation  |                                                 |
\*---------------------------------------------------------------------------*/
FoamFile
{
    version     2.0;
    format      ascii;
    arch        "LSB;label=32;scalar=64";
    class       volVectorField;
    location    "2";
    object      U;
}
// * * * * * * * * * * * * * * * * * * * * * * * * * * * * * * * * * * * * * //

dimensions      [0 1 -1 0 0 0 0];

internalField   nonuniform List<vector> 
38
(
(0.938567 -0.0820896 0)
(0.973826 -0.00198727 0)
(0.866234 -0.0222849 0)
(0.88269 -0.0281688 0)
(1.01224 0.0457238 0)
(0.991135 -0.000673793 0)
(0.977526 -0.000260164 0)
(0.928936 -0.0753654 0)
(0.978231 -0.00326664 0)
(1.0023 0.00631236 0)
(1.0199 0.0359074 0)
(0.982423 0.0100285 0)
(0.993914 0.00705896 0)
(0.993393 -0.011672 0)
(0.960476 0.0133995 0)
(0.962983 -0.000635209 0)
(0.999205 -0.0381651 0)
(1.03182 -0.0684396 7.14527e-19)
(1.03894 0.00722536 2.32477e-20)
(0.956706 0.00866572 -1.49477e-18)
(1.01991 -0.0017074 -5.92758e-21)
(0.964899 -0.0413717 0)
(0.98251 -0.0433467 0)
(1.00447 0.00545516 9.07365e-19)
(1.03613 -0.00443698 -1.07888e-18)
(1.05653 -0.0288499 0)
(1.00308 -0.0269002 -9.00845e-19)
(1.05371 0.0269529 1.10063e-18)
(1.04663 0.0106352 0)
(1.01927 -0.00172012 0)
(0.996246 -0.000487329 0)
(1.02057 0.0329941 0)
(1.00229 -0.00952463 0)
(0.953768 0.0213767 0)
(0.974254 0.0827201 0)
(1.02187 0.0819964 0)
(1.02969 0.0282918 2.91875e-20)
(0.985189 -0.0622184 -5.38785e-19)
)
;

boundaryField
{
    wall-4
    {
        type            noSlip;
    }
    velocity-inlet-5
    {
        type            fixedValue;
        value           uniform (1 0 0);
    }
    velocity-inlet-6
    {
        type            fixedValue;
        value           nonuniform List<vector> 0();
    }
    pressure-outlet-7
    {
        type            zeroGradient;
    }
    wall-8
    {
        type            noSlip;
    }
    frontAndBackPlanes
    {
        type            empty;
    }
    procBoundary4to1
    {
        type            processor;
        value           nonuniform List<vector> 2((0.970533 -0.0182009 0) (1.00736 0.0278004 0));
    }
    procBoundary4to3
    {
        type            processor;
        value           nonuniform List<vector> 3((0.982776 0.0443242 -3.854e-18) (0.979313 0.0021582 0) (0.981801 0.00519512 0));
    }
    procBoundary4to5
    {
        type            processor;
        value           nonuniform List<vector> 6((0.989615 0.0254742 1.09556e-18) (1.00724 -0.00585838 0) (1.00177 0.0106251 0) (1.00254 -0.0267643 0) (1.00972 0.0180442 3.45845e-20) (1.00267 -0.00438894 -5.40226e-19));
    }
}


// ************************************************************************* //
