/*--------------------------------*- C++ -*----------------------------------*\
| =========                 |                                                 |
| \\      /  F ield         | OpenFOAM: The Open Source CFD Toolbox           |
|  \\    /   O peration     | Version:  2412                                  |
|   \\  /    A nd           | Website:  www.openfoam.com                      |
|    \\/     M anipulation  |                                                 |
\*---------------------------------------------------------------------------*/
FoamFile
{
    version     2.0;
    format      ascii;
    arch        "LSB;label=32;scalar=64";
    class       volScalarField;
    location    "0.2";
    object      p;
}
// * * * * * * * * * * * * * * * * * * * * * * * * * * * * * * * * * * * * * //

dimensions      [0 2 -2 0 0 0 0];

internalField   nonuniform List<scalar> 
918
(
-2.18177
-0.704878
0.36853
-2.69871
-0.240033
-1.85037
-2.67412
-2.23233
-1.67957
-1.09599
-0.464834
-2.38481
-4.33741
-4.20415
-3.12382
-0.0382609
-1.94565
-2.07873
-3.04319
-0.131878
-6.14154
-2.75315
-2.66252
-3.05196
-2.20534
-3.97756
-4.01724
-0.142605
-0.258076
-0.207664
0.718235
-0.559113
-0.195336
-4.59185
-2.35627
-1.10679
-2.72769
-1.49361
-2.50408
-2.51264
-2.56746
-2.67859
-2.16362
-2.08758
-2.28128
-2.30321
-2.42436
-2.80052
-2.41056
-1.77333
-3.05909
-2.20224
-1.25296
-0.674932
-1.2266
-1.47802
-1.0281
-1.01213
-0.474262
-0.469687
-0.487287
-0.536532
-0.392771
-2.47159
-2.38018
-2.36593
-2.40171
-2.38442
-1.25255
-1.77048
-1.30242
-5.28176
-3.87701
-3.6347
-4.07862
-4.61193
-4.70296
-3.35348
-3.82805
-3.44476
-4.4729
-2.75314
-2.49276
-0.0745579
-0.141409
-0.20709
-1.97191
-1.96986
-1.93358
-1.93851
-0.392715
-2.07687
-2.37243
-3.04301
-3.04801
-1.69439
-2.96642
-2.93258
-3.47348
-0.161
-0.16582
-0.439355
-0.161737
-0.251352
-4.2257
-3.60234
-3.13071
-3.04134
-2.36546
-2.2326
-2.32842
-2.38927
-2.07337
-2.05861
-3.52135
-4.37649
-3.88983
-4.21277
-3.70237
-3.66939
-4.05445
-4.64154
-0.154347
0.017078
-0.0363065
0.109711
0.0339844
-2.71594
-2.69172
-2.69965
-2.70354
-2.78123
-1.52318
-1.73033
-1.62501
-1.41212
-2.22216
-2.25522
-2.25238
-2.44686
-2.5376
-0.493905
-2.02041
-2.00762
-2.09251
-2.11863
-2.19044
-2.29583
-2.3422
-2.87319
-2.80798
-2.83804
-2.97586
-2.7554
-2.86257
-2.38041
-2.42125
-1.74527
-0.660973
-0.62154
-0.664752
-0.630038
-1.80692
-1.6505
-1.69433
-0.982307
-0.736068
-0.424049
-0.441459
-0.538411
-0.569345
-0.518185
-0.371441
-0.447037
-0.245383
-0.301452
-2.46661
-2.44572
-2.45497
-2.45885
-2.63459
-2.56517
-2.32682
-2.43954
-4.2971
-4.42802
-4.03517
-4.28036
-4.91606
-6.30899
-2.31991
-2.61957
-0.0758402
-0.0795367
-0.0473038
0.280921
-0.0108177
0.0468527
-0.563122
-0.482486
-0.131032
-0.271727
-1.96889
-1.95137
-0.363696
-0.240887
-0.475683
-0.606429
-2.94475
-2.99798
-3.01224
-2.99131
-0.369475
-0.0695386
-0.230616
-2.54878
-3.0443
-2.79649
-2.37598
-2.39576
-2.38795
-2.39496
-1.97527
-2.03997
-2.00707
-3.93559
-4.35535
-5.16056
-5.13752
-5.3348
-5.60683
-3.62907
-3.68093
-5.00613
-2.45777
-2.67204
-2.55225
-2.88963
-2.67816
-2.7791
-2.70408
-2.698
-2.6954
-1.89942
-2.08317
-0.967903
-1.16983
-1.27139
-1.16742
-0.564947
-0.468932
-1.96481
-2.00221
-1.97765
-2.22268
-2.3509
-0.527075
-0.424374
-2.41613
-2.4425
-2.44044
-4.27117
-4.83673
-4.56316
-4.65669
-4.05024
-4.00825
-2.41241
-4.02996
-3.21624
-3.16673
-2.78388
-3.07848
-0.500743
-0.626515
-0.524719
-0.197329
-0.193299
-0.646989
-0.8048
-0.723198
-3.8008
-4.15557
-3.66666
-4.39172
-3.83674
-4.04499
-3.77957
-0.545059
-0.84751
-0.714574
-0.322391
-0.227567
-2.35897
-2.38831
-2.43402
-0.404357
-0.403676
-0.395337
-0.28445
-0.259043
-0.282634
-3.05823
-3.17383
-0.019382
-0.138928
-2.92511
-2.84563
-0.413698
-0.287678
-2.56149
-2.5081
-2.00834
-3.00032
-2.88323
-3.10536
-1.23753
-0.9836
-0.613896
-0.679961
-0.574323
-2.45282
-2.55126
-2.48565
0.0497081
-0.307011
-0.41611
-1.79417
-2.86267
-2.87238
-2.78606
-2.88906
-2.70128
-0.169697
0.135863
-0.160352
0.0175696
0.0803212
0.188173
-2.71275
-2.7459
-2.22274
-2.78088
-3.01297
-2.81935
-2.99331
-3.0409
-3.06422
-0.0835239
-0.17468
0.0175848
-2.29143
-2.42666
-2.95423
-4.23037
-2.54551
-2.64792
-2.3435
-3.07158
-2.68423
-2.96121
-3.56033
-2.04283
-2.27604
-1.82053
-1.88169
-2.01185
-2.03813
-2.84133
-2.77928
-2.58276
-2.58703
-3.14306
-3.29264
-2.79126
-3.11088
-3.11956
-3.15981
-0.939263
-0.610733
-1.3274
-1.58092
-1.52431
-0.997253
-0.714672
-0.548698
-0.585331
-0.4643
-0.155567
-0.732985
-0.806816
-0.929227
-0.74367
-0.365849
-0.530507
-0.155731
-0.0985913
-0.56857
-0.364776
-0.100601
-2.56834
-2.52619
-2.34543
-2.24404
-2.83315
-2.63721
-2.53989
-2.37784
-2.44463
-2.55379
-2.33069
-2.41868
0.106576
0.152515
0.219915
-0.515199
-0.345654
-0.118453
0.0546556
0.0437403
-0.100077
0.388194
-0.756069
-0.52201
-1.76596
-1.96839
-0.307547
-0.675209
-1.99022
-2.98256
-2.78557
-2.89548
-2.7826
-2.715
-3.09525
-2.88433
-2.80768
-2.8571
-2.81747
-2.6032
-2.51268
-1.92434
-2.01143
-2.19328
-2.06877
-1.80358
-2.05333
-2.17993
-2.47963
-2.31343
-2.48396
-1.40137
-1.44067
-4.89214
-6.01122
-2.22654
-2.39015
-2.56592
-1.86379
-1.84827
-3.21693
-3.65899
-3.79404
-3.82918
-3.3573
-2.11499
-2.01402
-1.89716
-1.98868
-1.94784
-1.79155
-3.04747
-2.0227
-2.01082
-2.2638
-2.43001
-2.07528
-2.11487
-2.06359
-2.21924
-2.1435
-2.29142
-2.04961
-2.01654
-2.13216
-1.97503
-2.10738
-2.14321
-1.97316
-2.75861
-2.70504
-2.79924
-2.74823
-2.51789
-2.6951
-2.71164
-2.89074
-3.03523
-2.86353
-2.86343
-2.97599
-0.693702
-0.732804
-1.09926
-1.44127
-1.19055
-1.4961
-1.04222
-1.1303
-0.530663
-1.34924
-0.875976
-1.31365
-1.20891
-1.27601
-1.42553
-0.992407
-1.23152
-0.137403
-0.768112
-0.493784
-0.333725
-0.56684
-0.597203
-0.921559
-0.885019
-0.457633
-0.74877
-0.998542
-0.486991
-0.595856
-0.61518
-0.659228
-0.0126357
-0.274719
-0.712916
-0.572548
-0.843272
-0.688088
-0.473699
-0.449334
-0.461883
-0.293711
-0.357839
0.0438017
-2.47729
-2.53561
-2.52017
-2.28248
-2.2095
-2.2776
-2.36564
-2.47795
-2.42324
-2.49125
-2.47402
-2.37135
-2.63966
-2.73964
-2.33965
-2.45595
-2.6411
-2.56994
-2.38512
-2.44976
-2.40981
-2.46376
-2.38203
-2.20273
-2.35969
-0.0841163
0.266265
0.0373249
0.140164
0.418024
0.136619
0.0710402
-0.469005
-0.16751
-0.194876
-0.168432
0.0565634
0.00671554
-1.62102
-1.64131
-1.65824
-1.85725
-1.94615
-0.355312
-0.415916
-0.557098
-0.66955
-0.341238
-0.289445
-0.355507
-0.799718
-0.771421
-0.845006
-0.751578
-0.434913
-2.91267
-2.56391
-2.7601
-2.78239
-2.88079
-1.43401
-1.21227
-1.66919
-1.37329
-1.55569
-1.44116
-1.22467
-0.448213
-0.613962
-0.887632
-2.08751
-2.00075
-2.1527
-2.066
-2.09085
-2.43752
-2.34611
-2.33625
-2.12404
-2.27068
-2.25088
-1.85905
-1.96421
-2.42921
-2.3679
-2.35401
-2.15627
-2.13519
-2.15048
-2.3952
-2.29073
-1.77182
-2.11023
-1.78093
-2.46065
-2.48719
-2.26064
-2.20837
-2.18953
-2.38548
-2.18187
-2.11134
-2.34863
-2.26433
-2.21633
-2.16929
-0.989017
-2.22085
-1.71012
-1.94096
-2.06682
-1.94234
-1.95867
-2.06344
-1.8917
-2.15577
-2.24736
-3.03427
-1.71006
-2.01472
-2.1661
-2.62936
-2.48868
-2.32739
-2.43112
-2.72726
-2.75842
-1.96757
-1.9831
-1.9565
-1.98894
-2.09526
-2.20489
-2.20295
-2.09503
-2.19611
-2.50553
-2.019
-2.09546
-1.98181
-1.71738
-1.83845
-1.90172
-1.91126
-1.94313
-2.04948
-2.17171
-2.00805
-2.28937
-2.25875
-1.95283
-1.97522
-1.90244
-1.71705
-1.70097
-1.79393
-1.82163
-2.03874
-2.04949
-1.98871
-2.69619
-3.01361
-3.03407
-2.59764
-3.04297
-2.95491
-2.98395
-2.876
-2.85213
-2.90841
-2.77626
-1.04004
-0.772091
-0.49174
-0.72348
-1.31007
-1.16826
-0.0693364
-0.889917
-0.354508
-0.415545
-0.666319
-0.419243
-0.758123
-0.578065
-0.502165
-0.620101
-0.57268
-0.611302
-0.506414
-0.871308
-0.74658
-0.76665
-0.182821
0.134027
-1.13123
-0.656326
-0.576845
-0.663431
-0.372122
-0.461311
-0.403636
-0.622456
-0.668619
-0.152072
-0.482046
-0.273843
-0.417456
-0.162374
0.0801676
-0.606005
-0.529681
-2.58453
-2.51332
-2.27583
-2.19359
-2.62103
-2.40765
-2.81472
-2.32823
-2.46462
-2.44951
-2.37578
-2.32842
-2.48448
0.069158
0.54556
0.188649
-0.1769
0.316707
-0.190875
-0.556248
-0.846602
-1.35752
-1.437
-1.57865
-1.7074
-1.56296
-1.06862
-1.05266
-1.0644
-0.507357
-0.430399
-0.542823
-0.701643
-0.592955
-1.52881
-0.398934
-0.67105
-0.39524
-0.365785
-0.284855
-0.284335
-1.81121
-1.30724
-1.70486
-1.28391
-1.30625
-1.86156
-1.19607
-1.60936
-1.74176
-1.846
-1.44633
-1.63629
-2.00479
-1.55804
-1.31848
-1.39139
-1.25056
-1.30695
-1.34867
-1.11057
-0.849558
-1.9868
-2.00738
-1.97848
-1.96811
-1.99875
-2.02697
-2.26
-2.06808
-2.00686
-1.97454
-2.72732
-2.72105
-2.19624
-2.10758
-0.798524
-1.46546
-1.40329
-2.21344
-2.18422
-2.14513
-2.23164
-2.14339
-2.06726
-2.18235
-2.25744
-1.97681
-1.73613
-1.85967
-1.53862
-2.35765
-2.09489
-2.01035
-2.00252
-1.82848
-1.93613
-1.87957
-1.86156
-2.97545
-2.73109
-2.82419
-2.71953
-2.79848
-2.91107
-0.91058
-1.13426
-0.635667
-0.677992
-0.852816
-1.12133
-0.0575412
0.0301958
0.117228
0.400903
0.221451
-0.137586
-1.48738
-1.42839
-1.90415
-1.31115
-1.40738
-1.63885
-1.49935
-1.6549
-1.63737
-1.51596
-1.27722
-0.0946258
0.100471
0.0269147
-1.61349
0.0857611
-1.12862
-1.42302
-1.27317
-1.31739
-1.21928
-1.74738
-2.59957
-1.96273
-1.60044
-1.37543
-1.64862
-1.7559
-1.31408
-1.77745
-2.05467
-2.11325
-2.14751
-2.08216
-2.10405
-1.94983
-1.8622
-1.7134
-1.52527
-1.78199
-1.75991
-1.73418
-1.55226
-1.4213
)
;

boundaryField
{
    wall-4
    {
        type            zeroGradient;
    }
    velocity-inlet-5
    {
        type            zeroGradient;
    }
    velocity-inlet-6
    {
        type            zeroGradient;
    }
    pressure-outlet-7
    {
        type            fixedValue;
        value           uniform 0;
    }
    wall-8
    {
        type            zeroGradient;
    }
    frontAndBackPlanes
    {
        type            empty;
    }
}


// ************************************************************************* //
