/*--------------------------------*- C++ -*----------------------------------*\
| =========                 |                                                 |
| \\      /  F ield         | OpenFOAM: The Open Source CFD Toolbox           |
|  \\    /   O peration     | Version:  2412                                  |
|   \\  /    A nd           | Website:  www.openfoam.com                      |
|    \\/     M anipulation  |                                                 |
\*---------------------------------------------------------------------------*/
FoamFile
{
    version     2.0;
    format      ascii;
    arch        "LSB;label=32;scalar=64";
    class       surfaceScalarField;
    location    "0.2";
    object      phi;
}
// * * * * * * * * * * * * * * * * * * * * * * * * * * * * * * * * * * * * * //

dimensions      [0 3 -1 0 0 0 0];

oriented        oriented;

internalField   nonuniform List<scalar> 
1300
(
3.75095
5.62643
-6.70575
3.75095
-6.21234
5.62643
-6.4609
6.4609
-1.27943
1.27943
1.89032
1.86063
-5.88312
5.88312
-5.67001
5.67001
-3.10888
3.10888
-5.43935
5.43935
-5.14183
5.14183
3.73187
-3.73187
-5.33784
5.33784
-2.11391
2.11391
-6.52062
6.52062
3.25281
-3.25281
-5.66817
5.66817
0.468969
-0.468969
-0.327923
4.07888
3.42303
3.42303
-2.77664
2.77664
-5.60561
5.60561
6.11645
-6.11645
9.96999
-9.96999
-3.26424
-3.22297
0.994367
-7.83036
-5.21797
-5.21797
-8.52943
8.52943
-2.903
2.72343
3.23688
-3.23688
-2.78429
2.78429
-6.1788
-0.2821
-6.1788
6.65343
-0.192527
6.65343
-1.53644
0.257009
-1.53644
4.88367
-4.88367
0.96644
0.312987
0.966441
3.23532
-3.23532
-1.89488
3.7852
1.85607
-1.9152
5.99408
-1.83575
3.69638
-4.94334
4.94334
-6.0625
0.179382
-6.0625
5.81114
0.0719763
5.81115
-5.55428
5.55428
-5.69291
0.0229021
-5.69291
5.64222
0.0277951
5.64222
3.31296
-3.31296
-3.15068
0.0417979
-3.15068
3.05638
0.052495
3.05638
0.0713208
5.55511
-5.69775
8.42118
-5.55511
0.115756
5.26579
0.173558
5.26579
-5.23701
0.095179
-5.23701
5.33629
-0.194457
5.33629
3.66159
0.0702845
3.66159
-4.15449
0.422614
-4.15449
-3.24878
-3.26828
-5.44507
0.107226
-5.44507
-2.17949
0.0655792
-2.17949
2.02858
0.0853348
2.02858
-3.99899
3.99899
-6.74813
0.227512
-6.74813
3.22375
0.0290663
3.22375
1.89005
1.8609
5.641
-5.641
2.38819
-5.69785
0.029678
-5.69785
-5.71904
-4.25095
5.71904
-0.0508688
-0.143788
0.612757
-0.143788
3.29398
0.129051
3.29398
2.95342
0.102966
-2.95342
0.17678
3.72551
-3.72551
2.19192
0.584721
2.19192
-5.44229
5.44229
5.27695
0.0593341
-5.27695
-0.328661
6.13349
-0.0170404
6.13349
-6.14217
0.0257198
-6.14217
3.31094
-6.53391
-3.25176
5.2476
0.0902355
-5.24761
0.0296347
3.23351
0.00337361
3.23351
-3.20267
3.20267
-3.21
-0.0268861
-3.21
-2.79029
0.00600021
-2.79029
2.78634
-0.00204665
2.78634
-5.77996
-0.398839
-5.77997
-6.75905
0.0109201
6.75905
-0.10562
3.10941
-3.10941
-1.73624
0.199803
-1.73624
-5.3043
-0.47567
5.3043
-0.420627
-4.60575
-0.277919
-4.60575
-3.22401
0.0140135
3.22401
0.0113034
3.2331
0.0608795
-3.2331
-0.0022148
-1.89131
3.75221
-1.85965
3.71572
-4.71443
-0.228903
-4.71443
5.13554
-0.192207
5.13554
6.35657
0.164046
-6.35657
0.294068
5.67776
0.13339
5.67776
-5.47607
-0.0782125
-5.47607
5.55441
-0.000133077
5.55441
5.67458
0.00317909
-5.67458
-0.0183386
5.7217
-0.0794796
5.7217
3.34705
-0.0340904
3.34705
-3.27148
-0.0414787
-3.27148
3.16527
-3.16527
3.13639
0.0288846
-3.13639
-0.014292
-11.0746
11.1003
0.0231427
-11.0978
5.28894
5.28894
3.22973
0.431863
3.22973
-4.55236
0.397874
-4.55236
3.26481
-6.51657
3.27496
-6.52374
3.36399
-11.1943
3.28855
-6.55683
5.5126
-5.5126
5.43831
0.0742868
-5.43831
-0.00675221
-2.2015
0.0220096
-2.2015
-3.78182
-0.217165
-3.78182
4.29275
-0.293766
4.29275
-3.19414
3.19414
-3.20921
0.0150722
3.20921
0.0145395
5.63958
0.0821176
-5.63958
-0.05827
0.602398
0.364043
-0.602398
0.45861
3.89155
-0.16604
3.89155
-3.52006
-0.205453
-3.52006
-2.19767
-0.00383128
2.19767
-0.00575346
-5.80713
0.364839
-5.80713
-11.0925
-0.00528586
-10.9189
-6.14745
-6.14745
2.38197
10.8032
-3.24557
-0.0259127
3.24557
-0.01206
3.1739
0.0202346
-3.1739
-0.028763
-3.19224
0.0269715
3.19224
0.010424
-2.80376
0.0134711
-2.80376
-2.86068
2.86068
-2.86516
0.00448124
2.86516
-0.0788263
3.19362
-0.0842132
3.19362
1.90711
0.121468
-1.90711
0.170871
-4.33767
-0.268082
-4.33767
5.2748
-0.139256
5.2748
-3.42298
-0.0970794
3.42298
-0.0759232
-0.0118702
11.1122
-5.27707
0.040059
5.27707
-11.0952
11.1352
-2.89809
0.0943263
2.89809
0.331638
5.04773
0.394555
-5.04773
0.495372
5.53293
0.0214829
-5.53293
0.0203319
-3.56064
-0.221179
-3.56064
-4.48414
-0.230295
4.48414
-0.191383
-10.9944
-0.367909
11.3623
-11.1889
6.17504
-0.0415489
-6.17504
11.0937
-2.95444
-0.154973
2.95444
-0.0937556
3.30111
-0.107483
3.30111
4.13033
-0.238782
-4.13033
-0.207339
-5.43229
-0.0437754
5.43229
-0.157494
-3.45371
-0.106932
3.45371
-0.152604
-4.13569
4.26475
1.85838
-3.28978
-3.24413
-7.54073
1.89342
1.85879
4.28161
-6.90177
-4.29258
-6.87213
6.42789
-5.93252
-6.30036
6.37065
7.71421
-7.99213
-5.6765
5.69104
6.33911
-6.32781
1.84147
1.94373
10.6618
-10.4825
-9.96449
9.73559
9.98887
-9.96597
10.4076
-10.4858
-11.8826
11.9041
-5.55694
5.59873
-6.4419
6.40042
-6.55957
6.48364
-3.28012
-3.24361
8.79697
-8.68975
11.5253
-11.4956
-11.2566
11.4841
3.33382
0.930923
3.3947
-1.84997
3.69143
-1.84642
3.7048
3.20182
-6.48194
3.31475
-6.55888
5.8727
5.65259
-5.82183
-1.7189
-5.75441
5.75778
-5.67639
5.68682
11.0478
-11.3299
-1.82648
3.77022
-1.88923
3.74803
-3.3702
-2.3063
3.34113
0.940472
5.43601
3.36096
-5.52624
-1.34589
-7.51375
7.27497
-7.67625
7.4708
0.993701
4.92616
-5.91986
6.59931
-2.02191
6.94806
4.40598
4.80385
5.48861
-5.09406
0.443904
-6.36376
-6.69242
-2.16018
2.35999
1.9245
-1.61151
6.55343
1.16077
6.13281
-5.49609
-2.49604
-5.76417
3.75911
1.93193
3.77419
4.01989
2.31922
4.0339
2.95834
-3.10843
0.150091
-3.04398
6.00232
0.661784
-5.35028
-4.40981
6.77373
3.88812
6.8457
-7.29446
-3.188
-7.00039
-6.02976
-3.93473
-6.26006
6.38814
3.34745
6.19593
-7.75411
7.59661
6.57307
3.4158
6.60086
-6.61365
-3.35231
-6.63199
10.475
-2.87485
-7.60015
-6.82151
-5.06106
6.82164
3.58596
7.35568
4.54837
7.37601
3.43242
7.04258
-7.01838
1.95732
-3.71239
-1.84454
-3.72668
3.61007
1.98866
3.66257
-4.11296
-2.32894
-4.13888
-4.10591
-2.45365
4.14
2.26042
-4.20627
-3.46998
4.30335
2.1803
3.06726
-7.35984
3.48957
-6.73318
-6.12454
-2.56521
-6.13129
4.12362
2.61621
-6.73983
-2.35832
10.6361
-4.9835
8.91719
-7.19857
-4.29704
-7.25684
-8.7301
-2.52653
-8.71918
-5.16535
4.94417
-5.57434
5.28058
10.1818
-5.71777
-4.46399
-3.93534
-2.39247
3.93755
-0.542852
-3.68431
3.8344
0.0071221
3.71192
4.64285
4.09999
-3.75413
-1.92227
-3.78289
3.73416
1.95266
3.76113
8.74707
2.3007
8.55454
-7.56171
-3.76816
-7.96055
5.34145
-5.33545
2.86669
-2.87052
5.0815
2.38929
-4.91546
-2.59828
5.77424
-2.94912
-2.82512
-9.82116
6.41029
3.41088
-2.8731
3.72621
3.25725
-4.17956
-2.1208
3.75695
1.04691
7.4572
5.3364
-5.23192
5.59676
6.13039
6.18972
-0.502699
3.64728
-3.55295
6.39676
-1.12343
-5.27333
5.87351
-6.34918
-2.08704
-6.16712
4.08008
-0.216371
0.536399
0.0763577
-1.87618
-0.284007
-1.70531
0.799353
1.12515
1.1634
1.04654
1.31345
-2.36379
0.0410553
2.32273
-1.31725
-1.57046
-4.14588
-0.0915297
4.23741
5.55616
1.7188
-5.34882
-0.415349
2.55216
-2.46683
-1.70853
-2.43735
1.10228
-2.81081
-3.05724
-2.14399
5.20123
-3.26026
-0.522634
3.24002
0.534165
-3.68898
-2.06543
3.71586
0.318037
-2.9311
6.02499
-3.09389
-4.85337
2.52655
3.47577
4.45848
-4.6946
2.3843
2.3103
-1.21883
5.70094
1.14476
5.83433
-9.0343
5.8463
7.81045
3.6737
-7.97449
0.9741
-8.0602
9.29694
-8.23699
-1.05994
4.83043
4.46651
5.09475
5.08702
-3.62208
8.71683
-1.1666
-7.07039
9.2268
-5.55311
5.5783
-11.1314
-10.6653
3.59493
-6.61004
8.4393
-1.82926
-2.49448
-5.25963
9.10452
-0.797049
-8.30748
5.39888
-5.07029
-5.34729
10.4176
-7.94514
8.69961
-2.51777
-6.18184
-6.59127
-3.89454
6.63505
0.961568
-9.71493
11.6722
-2.67235
5.92631
0.674556
5.84683
3.77708
-5.8709
2.09382
4.16807
-6.68584
2.43532
-8.30622
-4.75548
9.46174
-4.70625
-7.32069
-6.52927
-0.791426
2.00411
9.66814
-6.55248
5.21026
1.34222
3.20765
0.55348
-3.23653
-0.49015
0.274971
4.40107
-4.67604
3.93754
4.0405
3.3232
1.07787
3.77159
1.9862
-3.75952
-0.379351
-3.94891
1.49525
-1.68849
-3.36926
4.86452
-3.95664
0.587383
-2.56519
-3.3763
5.94149
-4.40973
2.90177
3.12322
4.85443
-4.70343
1.32713
-2.33537
-2.36806
2.62952
-4.31801
1.85881
3.0057
4.03911
0.569128
4.72769
4.73405
-7.34389
0.610713
8.09502
-6.74913
1.59935
5.77666
-6.80961
0.280337
-5.85095
1.19847
-6.18197
-5.54136
6.21132
-8.73785
-4.92009
8.04908
0.50546
-7.94346
-0.775715
-3.57877
-1.58658
-3.6857
-1.86796
-3.70639
-5.49004
-1.02062
-4.46942
3.92355
-4.14292
-2.11714
4.3343
0.946275
-4.44428
4.2893
-4.34498
4.2375
0.236217
3.59819
4.33621
1.94374
-2.37936
4.3231
-6.69775
8.99845
-10.7079
4.01018
4.61638
-8.38454
-6.09155
3.23411
2.10734
3.23206
5.67329
-6.84043
1.16713
-6.35
7.51225
-1.16224
-9.69464
3.34464
-4.02135
2.55389
0.312796
2.5759
0.635435
2.29981
-2.93525
-2.23508
-2.24083
-2.37279
-3.27124
5.64404
0.872367
-3.17211
2.29974
-3.24685
4.11922
-0.127325
-3.04478
4.84532
-2.54551
5.15812
-3.37417
1.78395
3.22873
5.41757
-2.18884
4.14111
-1.75182
1.72841
-3.91726
-1.54283
-2.95835
4.94701
-2.98314
3.57052
-0.270974
3.8415
-3.82698
0.877851
-0.503771
3.53673
3.71351
4.05039
-2.97253
2.69198
-4.4438
-1.22527
-3.87467
-0.868972
-0.945532
-5.09072
6.03625
4.66979
-5.61532
-2.71285
5.46497
-2.75212
4.38755
-2.9224
-1.46515
-2.63922
-2.69622
2.62575
1.02153
5.40907
0.314889
-3.23729
-3.23806
-2.90642
4.7885
1.60826
-1.29695
4.70782
-1.9603
2.4967
0.889151
0.274245
1.02571
-0.136561
-0.809212
1.83493
-0.732855
1.7949
0.757262
-1.91637
0.211065
-1.95229
3.05457
0.370449
-1.49559
1.35903
2.48958
-3.61302
4.97274
-1.63366
-3.33907
7.46232
1.91826
-3.55192
4.24886
-4.46523
2.99565
-3.08718
-0.556267
-5.0215
-3.86073
-2.23186
4.5316
-3.41218
5.13098
1.47436
-4.71563
6.18999
-3.4838
1.33981
-2.59401
3.35127
-0.635412
-1.9586
2.39246
2.80877
-2.88254
0.445183
-0.490075
1.92202
-2.4121
-0.88879
-2.20604
-4.53978
4.85782
-2.10255
4.48685
2.22056
-1.92694
6.41379
1.73107
-3.65802
-3.12229
-3.64493
-1.34772
3.11076
-0.922191
-5.7098
-7.10403
5.70662
0.127708
-9.05029
10.0821
-1.03178
-5.16217
-0.684123
5.51455
-7.41895
0.733114
-4.98363
5.09844
6.24321
6.37091
-8.14236
-0.165112
-4.79492
1.35131
-6.14622
5.81782
-2.74688
6.34181
-6.91622
4.79908
-5.96995
5.28187
-0.864355
5.46174
-3.36792
2.13841
-6.03295
-5.07138
6.93356
-3.51776
7.60812
-4.22747
11.8356
-6.89982
6.76128
5.07431
-1.41671
-5.84013
-6.85009
5.43338
-0.0888149
5.75801
4.92433
-2.93813
4.54498
2.10197
-4.43734
-2.21604
-6.29738
1.86004
-3.17416
-1.75865
3.61869
3.09577
3.64925
1.25063
-3.1591
6.55324
-7.34466
-1.84698
-3.69438
6.60788
-1.1745
3.87114
-7.56551
-2.31084
5.17913
-0.596194
-4.58293
0.538642
-5.45873
2.49412
-7.95286
6.24373
-7.01944
1.35352
-5.37487
-3.09075
-3.18451
-1.24043
-3.10455
-4.44518
3.20475
-1.10054
3.18877
-5.6436
5.0474
-1.86865
5.0734
-3.19764
-0.48806
3.35025
0.887254
5.96065
-0.00481407
-6.08674
-1.85963
5.59608
-3.73645
2.92887
-5.09553
0.500545
3.54499
3.91733
-7.62507
-0.759468
-6.84621
-2.30004
4.40738
3.16493
7.83472
0.994289
4.91284
-0.505466
5.90713
2.7266
2.64777
-3.96928
5.13641
2.06697
6.07715
-0.83307
2.61702
1.74283
1.80841
0.658422
2.3006
1.41291
3.17845
0.2432
-1.99763
2.62399
-5.53042
-0.613295
-5.09855
1.27209
3.75759
-2.4855
4.6489
-3.04064
0.912451
2.38272
-3.13993
0.757212
-2.89061
-0.643235
1.19169
-0.755733
2.11477
2.29884
-3.30645
0.415845
-0.147238
-3.71349
3.23442
-2.78924
0.0195317
6.20953
-2.41735
0.00525156
-1.07754
-2.20079
-2.4848
2.27373
6.1397
0.274095
3.04581
5.13191
3.06648
0.128349
4.14086
-5.97012
-4.16536
-6.13523
-0.317408
5.19714
1.78353
7.88461
6.85784
5.68334
-1.88217
-9.22684
7.48211
-2.3457
6.31987
-1.73693
-6.21592
6.31851
2.67994
-6.82397
-0.19547
-6.41139
-8.75709
-0.313209
5.36061
-5.64744
5.15938
3.5728
0.896618
-2.65809
-0.526417
2.65361
-0.00583995
5.90129
-0.970103
-5.27529
6.24539
-2.78749
2.1742
3.34217
1.36565
4.09939
1.05875
-4.21654
-6.70204
-1.26835
-2.34466
-4.60743
-0.370015
-1.92882
3.89745
-1.72325
2.4323
4.52214
5.43459
-1.48401
-4.13131
4.23612
-1.80382
3.63077
)
;

boundaryField
{
    wall-4
    {
        type            calculated;
        value           uniform 0;
    }
    velocity-inlet-5
    {
        type            calculated;
        value           uniform -3.75095;
    }
    velocity-inlet-6
    {
        type            calculated;
        value           uniform -5.62643;
    }
    pressure-outlet-7
    {
        type            calculated;
        value           nonuniform List<scalar> 8(6.70575 6.21234 6.4872 6.83599 6.51705 6.5627 6.53977 6.65254);
    }
    wall-8
    {
        type            calculated;
        value           uniform 0;
    }
    frontAndBackPlanes
    {
        type            empty;
    }
}


// ************************************************************************* //
