/*--------------------------------*- C++ -*----------------------------------*\
| =========                 |                                                 |
| \\      /  F ield         | OpenFOAM: The Open Source CFD Toolbox           |
|  \\    /   O peration     | Version:  2412                                  |
|   \\  /    A nd           | Website:  www.openfoam.com                      |
|    \\/     M anipulation  |                                                 |
\*---------------------------------------------------------------------------*/
FoamFile
{
    version     2.0;
    format      ascii;
    arch        "LSB;label=32;scalar=64";
    class       volVectorField;
    location    "0.2";
    object      U;
}
// * * * * * * * * * * * * * * * * * * * * * * * * * * * * * * * * * * * * * //

dimensions      [0 1 -1 0 0 0 0];

internalField   nonuniform List<vector> 
918
(
(0.522703 -0.336769 0)
(0.539274 2.62387 0)
(-0.403017 1.65231 0)
(0.44557 0.261368 0)
(0.507487 1.77635 1.04674e-18)
(-0.490829 2.39086 8.07333e-18)
(1.10545 1.82739 4.4465e-18)
(0.43397 0.251745 9.18604e-20)
(0.52488 -0.00763678 0)
(0.00194735 1.80603 0)
(0.00618516 1.74029 0)
(0.954854 0.000799621 0)
(0.15181 3.11434 0)
(0.0905133 2.91042 0)
(-0.135732 2.66511 5.01693e-18)
(-0.0103012 1.71962 1.67888e-19)
(0.686864 0.171919 -5.62548e-18)
(0.132219 2.10132 3.59401e-18)
(0.976682 0.017824 0)
(0.00455558 1.74135 0)
(-0.314678 -0.255783 1.11131e-17)
(0.318564 -0.094698 0)
(0.878873 0.101373 0)
(1.07463 0.018494 0)
(0.863739 0.0189773 0)
(-0.0467023 3.14278 0)
(-0.0202448 2.90107 -6.89407e-18)
(-0.641798 1.84528 0)
(-0.0329879 1.71907 0)
(-0.145551 1.79556 0)
(0.0262648 1.58384 0)
(-0.263113 1.56712 -8.43444e-19)
(-0.00677368 1.74649 0)
(-1.21755 2.91406 7.03685e-22)
(-0.326942 2.66335 -7.74146e-18)
(-0.0320769 2.93825 0)
(0.99414 -0.00181293 0)
(0.865167 1.36079 -1.75627e-18)
(1.09421 1.701 -7.60299e-18)
(1.24889 1.60161 6.1091e-18)
(0.933009 1.88354 -1.03669e-18)
(0.899424 2.01234 5.5533e-18)
(0.453706 0.313734 -8.87314e-20)
(0.50694 0.258671 0)
(1.38579 0.832366 0)
(0.352781 0.318003 -4.35616e-19)
(0.338459 0.220642 4.58128e-19)
(0.994739 -0.00439886 0)
(0.998557 0.000252042 0)
(0.525712 0.00696508 0)
(1.00145 -0.152133 0)
(0.96635 0.00373044 0)
(0.558085 0.059852 0)
(0.00245963 1.62815 2.39864e-18)
(0.0472863 1.84254 0)
(0.00751041 1.86458 0)
(0.00486947 1.80042 0)
(-0.00173952 1.78863 0)
(0.00537668 1.72697 0)
(0.0099062 1.7586 0)
(3.23133e-05 1.74869 0)
(-0.023072 1.74052 0)
(-0.00174815 1.73615 0)
(1.0175 0.0001277 0)
(0.966145 0.0128405 0)
(0.967793 0.00104608 0)
(0.950154 0.00456925 0)
(0.939612 -0.000237822 0)
(-0.371212 2.57388 -3.83963e-18)
(0.656719 2.41565 0)
(0.149927 1.96203 0)
(0.35923 3.19933 -7.22568e-23)
(-0.14185 3.1059 5.16668e-18)
(-0.00475186 2.95495 0)
(0.0688936 2.97718 0)
(0.249947 2.94803 -1.84658e-23)
(-0.0170081 2.94812 0)
(-0.275405 2.94313 0)
(-0.0325391 2.98394 0)
(0.124501 2.62215 0)
(-0.0121553 2.96345 0)
(-0.0632127 2.62373 4.64775e-18)
(-0.0315181 2.68015 0)
(0.000579423 1.74245 0)
(-0.0197775 1.74111 -1.65657e-19)
(-0.00255366 1.72901 2.83237e-19)
(0.71261 0.176157 1.9604e-18)
(0.722797 0.138481 1.91888e-18)
(0.675452 0.214612 6.06418e-18)
(0.651364 0.203494 3.9478e-18)
(0.147227 1.41999 0)
(0.335589 2.10203 -3.44604e-18)
(0.405862 2.17901 5.62966e-18)
(0.996975 0.00839971 0)
(0.990049 -0.00100537 0)
(0.52428 -0.00809039 0)
(1.04103 0.0380227 0)
(0.933805 0.100744 3.07748e-17)
(1.06464 0.363215 -2.40987e-17)
(0.0111573 1.75472 0)
(0.00525317 1.75183 0)
(-0.111338 1.64637 0)
(-0.0301453 1.7526 0)
(-0.0263711 1.71839 0)
(-0.211234 0.16876 -3.08028e-18)
(0.0518808 0.0497762 0)
(1.03931 -0.0243272 0)
(1.01241 -0.0032527 0)
(0.927685 0.0729253 0)
(0.884894 0.212456 0)
(0.906452 0.00465156 0)
(1.15773 -0.00730467 0)
(0.843372 0.074518 0)
(0.798438 0.0277353 -9.58145e-18)
(-0.0035535 2.83945 -5.52256e-18)
(0.171501 3.04888 0)
(0.111523 3.07212 0)
(0.0708634 2.94625 0)
(0.116509 2.91648 -6.36517e-18)
(0.0150788 2.91684 0)
(0.000872953 2.88613 2.03405e-17)
(-0.0522669 2.95933 -7.19011e-18)
(0.0326894 1.74766 0)
(0.00531853 1.74209 0)
(-0.00185348 1.72195 5.28445e-22)
(-0.0255868 1.74349 0)
(0.00138957 1.72518 0)
(0.999129 0.00135865 0)
(0.99298 -0.00237993 0)
(0.983612 0.00028165 0)
(0.994283 -0.0210302 0)
(0.98722 0.00215514 0)
(0.887984 1.44781 2.15755e-18)
(0.951437 1.43762 0)
(0.830681 1.37028 -2.24877e-19)
(0.787624 1.33095 0)
(1.19128 1.47524 -1.85285e-18)
(1.33536 1.33682 3.69351e-18)
(0.549 2.10099 0)
(0.751495 2.02339 0)
(0.666469 2.13226 0)
(0.529439 1.29217 4.90962e-19)
(0.526433 0.30255 0)
(0.562619 0.249332 -1.08772e-18)
(1.24325 1.24263 0)
(1.28271 1.00293 0)
(1.37829 1.07251 -3.76156e-18)
(1.31626 0.770514 0)
(1.39231 0.627318 9.95052e-20)
(0.991062 0.0163513 0)
(0.995612 -0.00465735 0)
(0.990394 -0.0010243 0)
(1.00514 -0.00586751 0)
(0.99729 -0.0442636 0)
(0.993706 -0.000329079 0)
(0.982436 -0.00365203 0)
(0.968111 -0.00108557 0)
(0.526291 -0.00398188 0)
(0.0376157 1.6106 -1.21739e-18)
(0.00229629 1.5812 0)
(0.04239 1.64782 -1.17013e-18)
(0.00959701 1.65824 2.12247e-18)
(0.0730946 2.01822 -2.99924e-18)
(0.0612727 1.91089 0)
(-0.00546758 1.97596 0)
(0.0108776 1.77122 0)
(0.00424908 1.74714 0)
(0.00366389 1.72192 1.29065e-20)
(-0.00694503 1.71098 0)
(-0.0011728 1.73192 8.8621e-19)
(-0.00381799 1.7224 -1.73778e-18)
(0.0144469 1.747 0)
(0.0231033 1.74738 0)
(0.00559548 1.74814 0)
(-0.00591801 1.74936 0)
(-0.00683963 1.75928 0)
(1.02854 0.0117235 0)
(1.02778 -0.00106955 0)
(1.01531 0.0060082 0)
(1.00508 -0.000308347 0)
(0.97261 -0.00141998 0)
(0.972246 0.00301155 0)
(0.969593 0.013775 0)
(0.963623 -0.000549277 0)
(-0.0278497 3.04627 5.20643e-20)
(-0.00944951 3.05788 0)
(-0.034723 2.9788 0)
(0.00195909 2.96498 0)
(0.448987 2.83971 0)
(1.50055 2.23177 2.19506e-18)
(-0.114287 2.6795 0)
(-0.0321108 2.69712 0)
(-0.000816741 1.75028 0)
(-0.00695155 1.72963 0)
(-0.00655996 1.74431 0)
(0.204491 1.85817 -1.81046e-19)
(0.00377049 1.74966 0)
(-0.0298368 1.78627 0)
(-0.00142969 1.72448 -1.16357e-19)
(0.0225913 1.71798 -8.42159e-19)
(-0.0141596 1.72798 -2.92539e-19)
(0.00770148 1.71069 0)
(0.740959 0.168733 -3.00168e-18)
(0.750084 0.0989442 3.09281e-18)
(0.216631 1.42285 0)
(0.221022 1.37822 1.44334e-19)
(0.147257 1.47644 1.09024e-18)
(0.0744886 1.48686 -1.10349e-18)
(0.982497 -0.00104712 0)
(0.985941 -0.0100783 0)
(0.994404 0.00413947 0)
(0.985521 0.00161755 0)
(0.0233909 1.75571 0)
(0.0180532 1.7479 0)
(0.00504626 1.73027 0)
(0.226806 0.293702 -4.29928e-18)
(0.0454743 0.251617 5.99041e-18)
(0.218939 0.159321 0)
(1.18866 0.0966508 -4.97269e-19)
(1.25974 0.063952 0)
(1.11683 0.0528031 0)
(1.08042 -0.00184838 0)
(0.777011 0.0979409 0)
(0.805488 0.0607719 1.53065e-17)
(0.777478 0.057655 -5.3984e-18)
(-0.125887 2.91299 -6.1997e-18)
(-0.0335108 2.88361 -3.55155e-19)
(-0.00262816 3.05491 1.32754e-19)
(0.0581433 3.19351 -4.5162e-18)
(-0.088954 2.97225 -2.33083e-19)
(-0.0984828 2.9835 9.83375e-22)
(-0.0898037 2.7927 3.1384e-18)
(0.456827 2.83915 -2.68976e-18)
(-0.398557 3.17402 5.8011e-18)
(1.00575 -0.00826553 0)
(0.997309 0.0406158 0)
(0.997722 0.00460311 0)
(0.98163 -0.00260996 0)
(0.983314 0.00633757 0)
(0.975368 -0.000954722 0)
(0.979601 -0.00671274 0)
(0.987355 0.00445066 0)
(0.980544 0.00112321 0)
(0.980727 1.52125 2.62309e-18)
(1.07715 1.46711 0)
(0.635727 1.2717 -2.43396e-19)
(0.657216 1.33065 -2.65002e-18)
(0.74405 1.33869 1.22336e-18)
(0.734312 1.31386 -2.86982e-18)
(0.495788 1.31806 -1.37569e-18)
(0.462155 1.29654 -2.2994e-19)
(0.635444 0.244913 -4.03807e-18)
(0.58554 0.276114 -1.08391e-18)
(0.612272 0.231052 -2.01792e-18)
(1.32035 0.563935 3.72404e-18)
(1.37143 0.429143 4.04552e-18)
(0.0206616 1.68576 -1.07174e-18)
(-0.00298543 1.67773 0)
(1.07275 0.0266547 0)
(1.04303 0.0178265 0)
(1.05174 0.00136661 0)
(-0.0728642 3.08713 0)
(0.16307 2.98155 -1.06171e-17)
(0.0629275 2.99369 0)
(-0.0264422 2.95983 1.05799e-17)
(-0.181165 3.05024 -2.02853e-18)
(-0.104706 3.04408 0)
(1.07091 1.6293 -1.13093e-18)
(1.16255 1.83768 3.59246e-18)
(1.21759 1.60158 -4.35734e-18)
(-0.128808 2.83704 5.06949e-18)
(-0.125668 2.76386 0)
(-0.00851162 2.79727 0)
(-0.00914684 1.73114 3.51877e-20)
(0.0307481 1.72232 1.88755e-18)
(-0.00338556 1.71726 -1.89348e-18)
(0.274438 1.37494 -4.04368e-19)
(0.268384 1.32938 2.63253e-19)
(0.0280458 1.5733 -1.41959e-18)
(0.0820491 1.53103 1.61286e-18)
(0.00551059 1.52875 -1.66168e-19)
(0.102429 3.11409 1.375e-17)
(0.0740539 3.07176 -1.42784e-17)
(0.231336 2.96994 -6.3346e-18)
(-0.232255 3.00566 7.71893e-18)
(0.0602779 2.99265 -6.43944e-18)
(-0.165473 2.98367 1.61554e-17)
(-0.265078 3.10734 6.35473e-20)
(0.560981 1.31035 0)
(0.597097 1.29709 3.68458e-18)
(0.576408 1.27134 -1.46064e-18)
(0.436158 1.3261 -5.94237e-19)
(0.398604 1.29817 1.05663e-18)
(1.25668 0.215129 -1.97857e-18)
(1.29592 0.411696 0)
(1.33928 0.247691 2.08492e-18)
(-0.0542252 1.71989 1.25404e-20)
(0.0196437 1.69723 0)
(0.0117362 1.71346 0)
(0.315327 1.36179 2.52198e-19)
(0.382471 1.33256 4.00637e-19)
(0.349163 1.3273 -7.21434e-19)
(0.968082 -0.0703664 0)
(1.08544 -0.135618 5.96685e-18)
(0.178321 1.72141 0)
(0.151193 1.52255 0)
(1.01492 -0.110447 1.99597e-19)
(0.841156 -0.120883 1.04525e-17)
(0.215792 1.9543 2.2202e-19)
(0.119263 1.68502 0)
(-0.0490556 2.85732 -4.33573e-18)
(0.238837 2.54676 0)
(1.21483 0.69337 1.57631e-18)
(1.08486 -0.00140763 1.52011e-19)
(1.09711 0.00876025 0)
(0.90115 -0.00626599 5.42573e-21)
(0.0320672 1.96706 0)
(0.0645836 1.80982 0)
(-0.0097483 1.89614 0)
(0.0519915 1.91432 -1.50551e-18)
(0.0227393 1.91029 -5.13639e-19)
(1.05481 0.00324153 2.14658e-19)
(1.11934 0.0279686 0)
(1.12841 0.0274316 0)
(-0.0330751 1.60536 0)
(0.0121636 1.86807 0)
(-0.0094177 1.91994 0)
(0.297233 2.0726 -2.92717e-18)
(1.03703 -0.174706 0)
(0.959787 -0.0354106 0)
(0.917053 0.199137 -6.73541e-18)
(0.881553 0.106591 8.0247e-18)
(1.10515 -0.0808286 0)
(0.296279 1.71552 0)
(-0.139404 1.67124 0)
(-0.0568236 1.86853 0)
(-0.00505534 1.81592 0)
(-0.299056 1.92393 0)
(0.0268578 1.54116 0)
(1.07857 -0.00222984 0)
(1.07641 -0.00340098 2.51126e-19)
(1.029 1.69335 3.76333e-18)
(0.955772 -0.227167 6.72458e-18)
(0.97455 0.0837427 -7.87467e-18)
(1.11871 0.0679331 0)
(1.01151 -0.0165956 6.82393e-18)
(1.11135 0.191381 7.7428e-18)
(0.908648 0.00371388 0)
(-0.0412439 1.79468 0)
(0.279064 1.80152 -1.31813e-19)
(-0.0194167 1.60864 1.21189e-19)
(1.2352 0.235911 -9.74444e-18)
(1.1775 0.0590041 0)
(-0.995081 2.5288 6.84956e-18)
(-0.254229 3.57346 5.14726e-19)
(-0.479135 2.47553 -5.7775e-18)
(0.091629 2.62022 -7.15992e-18)
(0.0287988 2.58356 0)
(0.0591823 2.85125 -1.94427e-18)
(-0.613391 3.00769 -9.04533e-18)
(0.0547132 2.86331 3.67405e-18)
(-0.402124 3.15854 0)
(0.624237 0.312474 0)
(0.446201 0.344698 0)
(1.03264 0.885109 -4.78581e-18)
(1.15482 0.893036 -1.96023e-18)
(1.18309 0.485123 0)
(1.16138 0.554459 0)
(1.03913 0.087946 1.19133e-17)
(0.954804 0.0336856 -1.49773e-17)
(1.11686 -0.210158 0)
(0.945207 -0.0465843 0)
(0.794369 0.100211 0)
(1.15607 -0.111994 0)
(1.02815 0.151017 0)
(0.92023 0.0139436 0)
(1.02999 -0.197872 0)
(0.933037 -0.0442053 0)
(0.00888319 1.84879 0)
(0.0664489 1.72554 0)
(-0.0356301 1.9117 0)
(0.0605469 1.80085 0)
(0.381215 1.83539 0)
(0.0978252 1.54209 1.3715e-18)
(0.118944 1.63167 0)
(-0.025326 1.61901 -7.27644e-19)
(0.052935 1.84997 1.26209e-18)
(0.131098 1.81815 0)
(0.0721643 1.68197 0)
(-0.0938799 1.79388 0)
(-0.0618554 1.69692 0)
(0.0489746 1.88749 1.1797e-18)
(0.0863127 1.83767 -9.0265e-19)
(-0.132337 1.84659 -4.58133e-19)
(-0.00661715 1.55908 0)
(-0.151501 1.84099 -5.69929e-19)
(-0.0682131 1.67726 1.45852e-20)
(0.260067 2.00151 -9.61916e-19)
(-0.312814 1.51362 1.21527e-18)
(-0.0728378 1.47053 5.35445e-19)
(1.01337 -0.0741577 -1.05554e-17)
(0.944618 -0.0383387 1.35215e-17)
(0.996756 0.0565565 9.98272e-18)
(0.911678 0.0360295 -1.27459e-17)
(1.12585 0.199513 0)
(0.96095 0.0396179 0)
(1.087 0.0871955 0)
(1.08718 -0.0806712 0)
(0.911614 0.00481823 0)
(1.16472 0.131421 0)
(1.10192 -0.0391359 0)
(0.925911 0.0369215 0)
(-0.334734 1.56427 -8.03394e-20)
(-0.184918 1.67362 0)
(0.125522 1.75885 0)
(0.115536 1.78002 -5.55355e-19)
(0.0717314 1.68913 1.00411e-20)
(-0.0869042 1.69648 -7.02386e-20)
(-0.347902 1.62463 -7.08072e-20)
(-0.193005 1.72935 0)
(0.259688 1.85567 0)
(0.153388 1.67541 0)
(-0.13635 1.83793 0)
(-0.0860175 1.70102 0)
(0.301301 1.94522 6.1035e-18)
(0.454031 1.93933 2.24863e-18)
(0.29852 1.53564 1.17268e-19)
(0.178689 1.65498 -1.23332e-18)
(0.397879 1.90943 -1.16312e-18)
(1.0567 0.0684286 0)
(1.00143 0.0973762 0)
(0.960024 0.0676437 0)
(0.942833 -0.0364462 0)
(1.03691 -0.124661 0)
(0.916067 0.0722887 0)
(0.982214 0.214809 0)
(1.00676 -0.0623981 0)
(1.02069 -0.06193 -1.19299e-17)
(0.956943 -0.0359636 1.49632e-17)
(1.02701 0.0689597 1.10778e-17)
(0.950838 0.0371567 1.55503e-19)
(0.938053 1.63472 0)
(0.887514 1.73228 3.92429e-18)
(0.877412 1.65109 3.36855e-18)
(0.999194 1.41663 -4.198e-18)
(0.951967 1.65677 -8.6949e-18)
(0.851625 0.115445 -3.6352e-18)
(1.13317 0.0455812 0)
(1.20339 0.341266 -7.76682e-18)
(1.03012 0.107739 3.20845e-19)
(1.03645 0.089049 0)
(-0.52471 2.21201 -4.50026e-18)
(-0.849871 2.38765 9.92807e-18)
(-1.74754 2.7531 -6.44104e-18)
(-1.77796 0.560314 3.28395e-18)
(-0.117162 2.43288 -2.69305e-18)
(-0.408922 2.58781 0)
(-0.00807432 2.35823 2.93522e-18)
(-0.0488894 2.06107 8.6924e-18)
(-0.0400635 2.25252 0)
(-0.084031 2.75941 -3.77942e-19)
(-0.019027 3.29653 4.18763e-18)
(-0.0351857 2.85089 -6.10149e-18)
(-0.391868 3.08791 0)
(0.166066 2.96688 0)
(1.07163 1.77291 0)
(0.425932 1.22803 3.5286e-18)
(1.10551 1.14693 -2.17544e-18)
(0.88204 1.52569 0)
(0.777637 1.0312 1.73531e-18)
(0.991696 1.16073 1.15293e-20)
(-0.0394549 0.342215 6.98531e-18)
(0.641621 0.231162 7.6853e-20)
(0.604574 0.262567 -2.47968e-18)
(0.340131 0.46716 -1.93253e-19)
(0.242528 0.324674 8.42227e-18)
(0.532367 0.448485 0)
(0.521924 0.610528 -4.38375e-18)
(0.56446 0.303516 0)
(0.421312 0.344446 0)
(0.446077 0.315409 0)
(0.624714 0.714862 -3.3674e-18)
(1.23888 0.150025 7.31258e-18)
(1.11184 0.608953 0)
(1.17068 0.281299 0)
(0.763812 0.225725 -3.63764e-18)
(0.580792 0.760552 2.49775e-18)
(0.516503 0.506846 -5.01088e-18)
(0.847282 0.393346 5.20245e-18)
(1.00127 -0.0727463 -8.21873e-18)
(1.02112 0.217163 7.87765e-18)
(0.955306 0.0164682 0)
(0.989686 -0.0473263 0)
(0.998063 -0.0228338 7.3026e-18)
(0.947081 0.045051 -7.23275e-18)
(0.958584 0.127401 0)
(0.914914 0.059719 0)
(1.05464 -0.0106977 0)
(0.907203 -0.0846797 0)
(1.10712 -0.00349281 0)
(0.962535 -0.0621281 0)
(0.320267 1.81282 0)
(0.0808185 1.73495 0)
(0.490243 1.86897 1.83492e-18)
(0.416156 2.00187 1.33841e-18)
(0.432963 1.88994 2.91764e-18)
(0.262284 1.87816 -1.40099e-18)
(-0.106157 1.82638 0)
(-0.0155958 1.92998 2.4492e-18)
(-0.196461 1.93417 0)
(0.219248 1.67524 1.57533e-18)
(0.140135 1.63396 -1.83889e-18)
(0.400943 1.55589 -2.06554e-18)
(0.081711 1.6859 1.18523e-18)
(-0.00941449 1.76276 9.89591e-19)
(0.136583 1.82758 3.39983e-18)
(0.2503 1.86803 -1.9111e-18)
(0.360309 1.66514 2.29297e-18)
(0.236148 1.64138 4.52093e-19)
(0.308973 1.80648 0)
(0.0194089 1.84085 -9.61399e-19)
(-0.265944 1.6192 0)
(0.0526371 1.68404 8.6044e-19)
(0.0353136 1.57723 0)
(-0.0348294 1.86001 1.58544e-18)
(0.0907432 1.62706 0)
(-0.0578184 1.80835 0)
(0.0987736 1.64172 -1.65631e-18)
(0.270147 1.89601 1.93516e-19)
(-0.0398451 1.73505 -1.48934e-18)
(0.0686859 1.60346 -9.99503e-21)
(0.26442 1.84577 -6.57626e-19)
(0.0943534 1.4948 -4.24887e-19)
(-0.310286 1.72224 0)
(-0.0416386 1.77077 0)
(0.0366127 1.56192 -1.90265e-18)
(-0.000974342 1.6024 -1.66664e-18)
(0.102084 1.83829 2.25694e-18)
(-0.0329172 1.88715 0)
(0.160608 1.95134 1.25914e-18)
(-0.110793 1.56834 -8.72364e-19)
(-0.113807 1.74244 2.56195e-19)
(0.167419 2.00461 -7.33381e-19)
(0.30012 1.6045 1.59603e-19)
(0.0102762 1.4596 -9.60771e-20)
(0.996476 0.0812883 7.06252e-18)
(1.00693 -0.206017 -7.45022e-18)
(0.946218 0.0145319 0)
(0.956758 -0.102954 -9.83607e-18)
(0.900268 0.209144 9.93556e-18)
(0.978474 -0.017315 -1.05391e-17)
(0.944407 -0.061889 1.30584e-18)
(1.10468 -0.167202 0)
(1.01857 0.0109041 -7.07236e-18)
(0.943103 -0.0503424 6.68514e-18)
(0.928861 -0.136394 4.03624e-19)
(0.918576 0.21567 -3.44045e-18)
(1.0189 0.126927 0)
(0.928166 0.118584 1.17253e-18)
(1.02533 0.0308011 0)
(0.896564 0.107242 0)
(1.0679 0.0475798 0)
(0.908966 -0.0434042 0)
(0.977503 0.125824 -2.47343e-18)
(1.10495 0.018076 5.28063e-18)
(1.02117 -0.0234437 0)
(0.977403 -0.032581 2.90789e-18)
(1.17038 0.0744904 -5.87332e-18)
(0.88664 0.0996391 0)
(0.902751 -0.0700395 0)
(-0.0779208 1.98634 -6.41265e-20)
(0.388343 1.91514 -9.62278e-20)
(0.175338 1.52159 0)
(0.0417576 1.66193 6.69774e-20)
(-0.281252 1.64194 1.00304e-19)
(-0.247467 1.69818 -2.21973e-20)
(-0.217377 1.81036 8.44529e-21)
(-0.204916 1.74483 5.08946e-20)
(0.269133 1.66712 -2.9196e-20)
(0.223015 1.75369 2.10342e-19)
(-0.0562773 1.70502 -2.92331e-19)
(-0.066924 1.60475 -7.78564e-20)
(0.14448 2.02502 3.24936e-19)
(0.440053 1.65892 -2.7817e-18)
(0.203018 2.03333 -3.40576e-18)
(0.769411 1.80031 -4.16595e-18)
(0.554347 1.90908 -2.15775e-18)
(0.683414 1.88479 0)
(0.484543 1.47874 -9.85749e-20)
(0.308886 1.34422 -2.31336e-19)
(0.347155 1.57352 1.54963e-19)
(0.178482 1.49665 2.07191e-18)
(0.658843 1.61747 -3.09955e-19)
(0.16304 1.51861 0)
(0.177699 1.36167 4.44006e-19)
(0.10782 1.65352 -3.0535e-18)
(-0.115555 1.63514 -1.6838e-19)
(0.041431 1.46225 3.32031e-18)
(0.64599 1.48411 -2.48588e-18)
(0.461506 1.47475 0)
(1.07341 0.272371 -2.58723e-19)
(0.995745 -0.214728 2.19114e-19)
(0.895381 -0.160112 3.71788e-18)
(1.0588 0.0541859 -3.76296e-18)
(0.925657 -0.021608 0)
(0.633523 1.55929 0)
(0.966229 1.63133 0)
(0.795468 1.23035 0)
(0.817434 1.52964 0)
(0.710309 1.67407 -5.90847e-18)
(0.675752 1.44132 0)
(0.506153 1.35186 -3.99094e-20)
(0.385396 1.39431 0)
(0.519516 1.71896 1.60647e-18)
(0.704873 1.49285 0)
(0.79381 0.055557 0)
(0.797754 0.123221 -9.66995e-19)
(0.821331 0.18253 -6.35417e-18)
(0.85765 0.0254487 2.22956e-18)
(0.818387 0.0761057 7.07011e-18)
(1.23151 0.240301 9.28616e-18)
(0.609848 0.520495 7.81369e-20)
(1.04853 0.0266363 -5.97782e-18)
(0.87062 0.0599395 -5.85392e-18)
(0.835808 0.197033 9.72973e-18)
(0.956404 0.313536 -1.14201e-18)
(0.664454 0.312642 2.49007e-18)
(0.799106 0.334463 0)
(0.917415 0.156409 4.93329e-18)
(1.0453 0.126068 0)
(1.05072 0.0380202 0)
(0.915319 0.263471 -2.67995e-18)
(0.944602 0.431299 -2.58535e-20)
(0.807659 0.0268953 4.59121e-18)
(0.940103 0.00704979 0)
(0.8954 0.0107526 -4.93688e-18)
(0.866683 -0.177157 -2.84247e-18)
(1.13325 0.0707827 4.99944e-18)
(1.02219 0.22354 3.4934e-18)
(0.965842 -0.107529 7.00854e-18)
(0.83093 0.239359 0)
(0.909382 0.00763684 0)
(0.876446 0.133124 3.80325e-18)
(0.900347 -0.142812 -1.30196e-18)
(1.04447 0.185065 -3.66126e-18)
(1.07919 0.0697178 7.31546e-18)
(0.917576 0.159905 -6.73574e-18)
(0.865026 0.246016 0)
(1.10768 0.200147 0)
(0.841935 0.106702 3.26728e-18)
(0.930889 0.0550147 1.56773e-18)
(0.431976 1.68419 -1.26464e-18)
(0.608728 1.32323 2.59354e-18)
(0.80233 1.49467 2.84554e-18)
(0.680665 1.57361 -8.1072e-19)
(0.958049 1.58619 6.82453e-18)
(0.967174 1.68951 -3.65291e-18)
(0.816882 1.35064 3.50676e-20)
(0.967013 1.75538 3.49684e-18)
(0.582429 1.64629 -4.77901e-18)
(0.611007 1.83812 -1.49513e-18)
(1.1033 1.75061 1.48625e-18)
(0.956646 1.90396 0)
(0.559052 1.44551 3.36595e-19)
(-0.387774 1.56741 -2.0497e-18)
(-0.59388 0.550344 -4.41628e-18)
(-0.466419 0.723788 -7.08159e-18)
(0.138351 0.474926 -4.64187e-18)
(0.171058 0.397903 7.53718e-18)
(0.111939 0.713916 -5.88297e-18)
(-0.141476 0.366074 2.77528e-18)
(0.104822 0.316369 -6.38603e-18)
(0.695395 0.297905 2.21662e-18)
(0.614566 0.350545 0)
(0.631678 0.256572 1.65659e-21)
(0.584425 0.46231 -2.29827e-18)
(0.271106 0.6112 8.44389e-18)
(0.21686 0.570335 -1.41318e-19)
(0.460612 0.375305 0)
(0.489034 0.888836 -2.82558e-18)
(0.698604 0.810061 -4.65651e-18)
(0.72888 1.42373 5.37217e-18)
(0.665949 0.858602 1.60389e-18)
(0.862119 0.871802 6.3929e-19)
(1.03286 1.21924 -6.36458e-19)
(0.664656 0.753177 5.58565e-18)
(0.745511 1.0632 -1.52735e-18)
(1.07703 0.84748 0)
(0.928924 0.754582 2.24775e-18)
(0.88678 0.299523 -1.67805e-18)
(0.892986 0.45856 -3.76841e-18)
(1.0433 0.342552 -3.94001e-18)
(0.885853 0.446246 3.51558e-18)
(1.05178 0.396108 0)
(1.02059 0.305416 0)
(0.649861 0.440015 -3.16085e-19)
(0.851201 0.198234 0)
(0.581918 0.303368 -2.47445e-18)
(0.857909 0.315005 -7.41051e-18)
(0.937442 0.657853 -1.37074e-17)
(0.768408 0.560273 -3.18667e-18)
(0.644632 0.50577 3.69049e-18)
(0.623995 0.477739 4.06832e-18)
(0.66928 0.62396 -2.30934e-18)
(0.550791 0.37913 2.42289e-18)
(1.06783 0.0779356 -6.35362e-18)
(0.897919 -0.179453 0)
(0.90008 0.0133859 -4.51224e-18)
(0.82244 0.284272 9.65117e-18)
(1.10638 0.00236862 -4.93395e-18)
(0.873389 0.0214977 1.0381e-17)
(1.07845 -0.0392161 0)
(0.962966 0.0117249 2.00795e-18)
(0.95204 0.118838 -5.29993e-18)
(0.965897 -0.0070514 2.76859e-18)
(0.911089 -0.207017 -1.96834e-18)
(-0.225954 1.79563 0)
(0.242055 1.64306 0)
(-0.207689 1.74771 0)
(-0.0246117 1.71702 0)
(0.00507358 1.97072 -4.15278e-18)
(-0.0963858 1.78342 1.73771e-18)
(0.0893843 1.44456 6.07486e-19)
(0.231884 1.43435 -9.85806e-19)
(-0.472962 1.94051 9.76021e-19)
(0.111877 1.53975 -7.74895e-19)
(-0.0526971 1.92303 8.94604e-19)
(-0.00763582 1.51851 1.22564e-18)
(0.193788 1.75533 2.1275e-19)
(0.46452 1.70253 1.56798e-19)
(-0.10189 1.73861 1.03716e-18)
(0.139673 1.61353 0)
(-0.131113 1.76874 -5.39617e-20)
(0.133283 1.65049 -4.93662e-19)
(0.107129 1.52351 2.28306e-19)
(-0.0670581 1.83334 0)
(0.337862 1.52458 1.98644e-18)
(0.124279 1.65753 -1.52596e-18)
(0.49904 1.63753 1.14884e-19)
(0.204271 1.55436 2.42902e-19)
(-0.195036 1.19278 0)
(0.172333 1.45883 -1.67905e-19)
(-0.103453 1.39269 -1.7979e-18)
(-0.0852318 1.76697 0)
(0.051582 1.66442 -3.4877e-20)
(-0.0770511 1.98913 -6.87313e-19)
(-0.0755428 1.63497 -1.6133e-19)
(0.128419 1.5914 2.90921e-18)
(-0.115758 1.96501 -1.32074e-18)
(-0.196683 1.25384 7.06082e-19)
(0.160092 2.07794 0)
(0.0657971 1.94944 0)
(-0.281886 1.81945 -8.42383e-19)
(0.30598 1.71106 1.78777e-19)
(-0.0820395 1.71543 0)
(0.192987 1.7711 -8.66121e-19)
(0.0167755 1.69886 1.59591e-18)
(0.945247 0.383108 0)
(1.17399 0.0026501 6.49539e-19)
(0.890956 0.182043 4.38054e-18)
(0.886506 -0.0114547 0)
(0.83432 -0.283211 0)
(1.16108 -0.0395661 3.13842e-20)
(1.03496 -0.245413 -8.49266e-18)
(0.874296 0.00949304 -8.23565e-18)
(1.06981 0.0440392 0)
(0.963548 -0.0103408 0)
(0.938927 -0.0959465 -4.39307e-18)
(0.959529 0.0257736 0)
(0.90967 0.213728 0)
(0.0058807 1.80345 0)
(-0.0678062 1.44044 1.64462e-19)
(-0.190209 1.48777 -6.90775e-19)
(-0.0839163 1.73415 0)
(0.3372 1.88117 4.08097e-19)
(0.079551 1.76581 5.4152e-20)
(0.15727 1.53808 0)
(0.186763 1.54334 0)
(0.261534 1.29143 3.01697e-18)
(0.311249 1.40735 0)
(0.537272 1.82958 -7.05091e-18)
(0.52865 1.69245 0)
(0.614944 1.79217 -2.07303e-19)
(0.298924 1.28942 6.18683e-20)
(0.926041 1.36487 2.58456e-18)
(0.613563 1.31192 -3.66921e-18)
(0.587782 1.40837 -3.69894e-19)
(0.287587 1.49094 0)
(0.54221 1.34707 0)
(0.428886 1.48418 0)
(0.428731 1.30012 1.37076e-18)
(0.494646 1.38404 3.10602e-18)
(0.189389 1.34562 2.28819e-19)
(0.616185 1.6611 -1.80487e-19)
(0.252505 1.42883 0)
(0.499068 1.37974 0)
(0.348504 1.33874 2.18099e-19)
(0.398546 1.53532 0)
(0.488167 1.34824 0)
(0.815341 1.35156 3.27657e-18)
(0.428587 1.04538 1.96545e-19)
(0.819776 1.3841 0)
(0.686934 1.50929 -4.8785e-18)
(0.82551 1.51476 1.49018e-18)
(1.25829 1.23519 0)
(0.945929 0.88167 -2.58613e-18)
(0.324498 1.68308 0)
(0.260899 1.30161 0)
(0.786615 1.2633 2.17492e-18)
(0.692862 1.55498 1.96298e-18)
(0.908121 1.48955 -4.01079e-18)
(0.677487 1.68045 9.00734e-19)
(0.741529 1.54628 0)
(0.667937 1.38989 -1.16614e-18)
(0.807248 1.41521 1.39762e-18)
(0.717103 1.39681 1.424e-20)
(0.626599 1.43234 0)
(0.472137 1.5915 1.19536e-18)
(0.446165 1.29759 0)
(0.815044 0.100684 0)
(0.806843 0.238607 0)
(0.664642 0.183543 0)
(0.751977 0.402113 -3.75381e-18)
(0.763816 0.160949 -2.12146e-18)
(1.0961 -0.058558 2.49591e-18)
(0.834636 -0.0926702 0)
(0.9663 -0.0498697 -1.07368e-18)
(0.855405 0.196267 -4.23313e-18)
(0.675157 0.0891711 2.74781e-18)
(0.915189 2.23803 -2.52163e-18)
(0.750997 1.77456 0)
(1.00606 2.1365 -4.81156e-18)
(0.223752 2.29812 4.85045e-18)
(0.0151645 1.67422 3.36395e-18)
(0.065698 1.39092 -3.08152e-18)
(0.46411 1.49315 0)
(0.258358 0.91385 8.33696e-19)
(-0.0417819 1.17566 5.35502e-18)
(-0.206464 1.08206 1.22912e-18)
(0.105904 0.615793 -1.27319e-18)
(0.211718 0.675127 -3.28327e-18)
(0.513245 0.752162 0)
(0.277654 0.918228 0)
(0.110801 0.961513 0)
(0.791449 0.788498 -1.92471e-18)
(0.840737 0.616845 3.62344e-18)
(0.952081 0.632402 0)
(0.758439 0.333544 2.59796e-18)
(1.02291 0.759475 0)
(0.883821 0.651357 1.15802e-18)
(0.819157 0.379282 5.11847e-18)
(0.778151 0.158836 6.73492e-18)
(0.58844 0.449391 -4.11058e-18)
(0.574891 0.4947 3.79909e-18)
(0.732165 0.423914 2.91345e-18)
(0.67454 0.284289 -3.61889e-18)
(1.10292 -0.0160232 4.97979e-18)
(1.11938 0.0228118 -1.02172e-17)
(1.08345 0.00744168 -6.83663e-18)
(1.06308 -0.114062 7.82195e-18)
(0.74036 0.0853713 0)
(0.704286 -0.0630673 8.35722e-18)
(0.209023 1.45477 -2.15911e-19)
(-0.257833 1.80275 0)
(0.206823 1.85006 -2.56077e-18)
(0.189866 1.77522 2.21968e-18)
(-0.0295897 1.88418 -1.02584e-18)
(0.215592 1.72329 0)
(-0.22392 1.71946 0)
(0.243926 1.53327 -4.25409e-20)
(0.0263089 1.62469 -1.94637e-20)
(0.404021 1.58858 -4.60181e-20)
(-0.364742 1.88496 -3.32881e-19)
(-0.248128 1.76078 -1.37949e-19)
(0.573118 1.59808 5.69318e-18)
(0.827747 1.61344 6.17561e-18)
(0.424733 1.80689 4.16512e-18)
(0.774163 1.54421 -2.34524e-19)
(0.462451 1.76558 0)
(0.71243 1.76139 3.55147e-18)
(0.610313 1.61406 -3.48377e-18)
(0.449532 1.61625 -4.58847e-18)
(0.525689 1.6992 0)
(0.827566 1.73963 6.79799e-18)
(0.820175 1.35887 -4.60074e-18)
(0.394101 1.56256 -5.74713e-20)
(0.0203969 1.57409 4.13028e-20)
(-0.0735337 1.62271 8.15419e-20)
(0.341022 1.36857 -7.48337e-19)
(0.417554 1.18318 8.75529e-19)
(0.733291 1.36101 2.33941e-18)
(0.531238 1.46479 0)
(0.597856 1.35568 2.93539e-18)
(0.864349 1.4784 0)
(0.546506 1.80503 0)
(0.557062 1.90416 2.78758e-18)
(0.67218 1.73124 3.35975e-18)
(0.524144 2.0075 -2.43891e-18)
(-0.396943 1.42986 0)
(0.0665168 1.37863 1.40981e-18)
(0.0926799 1.4943 6.8878e-18)
(0.4752 1.59032 0)
(0.645539 1.86687 -1.06404e-18)
(0.332586 1.95089 0)
(0.627388 1.00537 5.9643e-18)
(0.551172 1.08858 -8.57797e-18)
(0.803502 0.810347 1.8723e-18)
(0.401169 0.803133 -7.43722e-19)
(0.36296 0.851542 3.22909e-18)
(0.820503 1.78056 -2.42974e-18)
(0.633542 1.63842 3.73708e-18)
(0.380007 1.74068 -2.41258e-18)
(0.514088 1.52776 2.83384e-18)
(0.583168 1.80724 3.83411e-18)
(0.596863 1.72301 2.47432e-19)
(0.794588 1.39651 -3.84198e-18)
(0.522858 1.71669 -2.37862e-19)
(0.559366 1.35755 -4.96901e-18)
)
;

boundaryField
{
    wall-4
    {
        type            noSlip;
    }
    velocity-inlet-5
    {
        type            fixedValue;
        value           uniform (1 0 0);
    }
    velocity-inlet-6
    {
        type            fixedValue;
        value           uniform (0 3 0);
    }
    pressure-outlet-7
    {
        type            zeroGradient;
    }
    wall-8
    {
        type            noSlip;
    }
    frontAndBackPlanes
    {
        type            empty;
    }
}


// ************************************************************************* //
