/*--------------------------------*- C++ -*----------------------------------*\
| =========                 |                                                 |
| \\      /  F ield         | OpenFOAM: The Open Source CFD Toolbox           |
|  \\    /   O peration     | Version:  2412                                  |
|   \\  /    A nd           | Website:  www.openfoam.com                      |
|    \\/     M anipulation  |                                                 |
\*---------------------------------------------------------------------------*/
FoamFile
{
    version     2.0;
    format      ascii;
    arch        "LSB;label=32;scalar=64";
    class       surfaceScalarField;
    location    "7";
    object      phi;
}
// * * * * * * * * * * * * * * * * * * * * * * * * * * * * * * * * * * * * * //

dimensions      [0 3 -1 0 0 0 0];

oriented        oriented;

internalField   nonuniform List<scalar> 
49
(
-1.5763
1.5763
-0.613212
0.613212
-1.75722
0.180917
-1.75722
1.4122
0.164103
1.4122
-0.944773
0.331561
-0.944773
0.132387
1.20123
0.210961
-1.20123
0.256462
2.79059
2.64408
-2.47998
0.218886
1.87268
-1.54112
1.59239
1.05169
1.80335
1.78935
0.509708
2.3623
-1.97027
1.70016
0.172521
0.631524
1.17183
1.88582
-1.2543
0.112831
1.77299
-1.42829
-1.36977
3.38802
0.992529
-2.04422
0.789923
-1.92616
-0.153171
-1.54233
2.33226
)
;

boundaryField
{
    wall-4
    {
        type            calculated;
        value           uniform 0;
    }
    velocity-inlet-5
    {
        type            calculated;
        value           nonuniform List<scalar> 0();
    }
    velocity-inlet-6
    {
        type            calculated;
        value           nonuniform List<scalar> 0();
    }
    pressure-outlet-7
    {
        type            calculated;
        value           nonuniform List<scalar> 0();
    }
    wall-8
    {
        type            calculated;
        value           nonuniform List<scalar> 0();
    }
    frontAndBackPlanes
    {
        type            empty;
    }
    procBoundary7to1
    {
        type            processor;
        value           uniform 0.394326;
    }
    procBoundary7to6
    {
        type            processor;
        value           nonuniform List<scalar> 2(1.84569 2.17908);
    }
    procBoundary7to8
    {
        type            processor;
        value           nonuniform List<scalar> 5(-1.8896 -2.6582 1.00123 -2.87201 -2.01826);
    }
    procBoundary7to19
    {
        type            processor;
        value           uniform 2.09868;
    }
    procBoundary7to20
    {
        type            processor;
        value           uniform 1.91905;
    }
}


// ************************************************************************* //
