/*--------------------------------*- C++ -*----------------------------------*\
| =========                 |                                                 |
| \\      /  F ield         | OpenFOAM: The Open Source CFD Toolbox           |
|  \\    /   O peration     | Version:  2412                                  |
|   \\  /    A nd           | Website:  www.openfoam.com                      |
|    \\/     M anipulation  |                                                 |
\*---------------------------------------------------------------------------*/
FoamFile
{
    version     2.0;
    format      ascii;
    arch        "LSB;label=32;scalar=64";
    class       volVectorField;
    location    "7";
    object      U;
}
// * * * * * * * * * * * * * * * * * * * * * * * * * * * * * * * * * * * * * //

dimensions      [0 1 -1 0 0 0 0];

internalField   nonuniform List<vector> 
39
(
(0.886181 0.00792938 0)
(0.940703 0.00932725 0)
(0.904013 0.00247561 0)
(0.927492 0.018163 0)
(0.869173 0.0152726 0)
(0.901589 0.0107051 0)
(0.859123 -0.0145887 0)
(0.992994 0.0227732 2.07925e-21)
(1.00326 0.0169083 4.60977e-19)
(1.00102 0.019915 -4.90455e-19)
(0.982353 0.0120493 6.11427e-19)
(0.989408 0.0662642 4.57969e-19)
(0.978642 0.0247042 -5.15128e-19)
(0.950092 0.0151452 5.91949e-19)
(0.987773 0.0878409 -5.96037e-20)
(1.00169 0.0294674 8.93269e-20)
(0.989848 0.0254805 -4.72406e-20)
(1.00626 0.0182879 0)
(1.0021 0.0245748 0)
(1.00325 0.016259 1.00902e-19)
(1.00016 0.0260406 0)
(0.988995 0.0165644 -1.18754e-19)
(0.996911 0.0446211 2.16072e-19)
(1.03836 0.0423789 0)
(1.03245 0.0941 0)
(1.01 0.0261014 2.34277e-19)
(1.00324 0.0367214 2.81318e-19)
(1.00923 0.029446 -2.27278e-19)
(1.01381 0.052997 -1.8958e-19)
(1.00266 0.0625153 -3.21668e-19)
(0.952281 0.0808622 0)
(0.940649 0.0410609 -2.13153e-19)
(1.00898 0.0908603 2.70241e-19)
(0.997956 0.107694 -1.93252e-19)
(1.00657 0.118506 8.93902e-20)
(1.00224 0.122433 0)
(1.00995 0.0903665 0)
(1.00051 0.0809936 -1.18079e-19)
(1.01088 0.0848659 -2.16023e-19)
)
;

boundaryField
{
    wall-4
    {
        type            noSlip;
    }
    velocity-inlet-5
    {
        type            fixedValue;
        value           nonuniform List<vector> 0();
    }
    velocity-inlet-6
    {
        type            fixedValue;
        value           nonuniform List<vector> 0();
    }
    pressure-outlet-7
    {
        type            zeroGradient;
    }
    wall-8
    {
        type            noSlip;
    }
    frontAndBackPlanes
    {
        type            empty;
    }
    procBoundary11to0
    {
        type            processor;
        value           nonuniform List<vector> 3((1.00452 0.0132016 0) (1.00336 0.019499 -2.22808e-19) (1.01158 0.0229548 0));
    }
    procBoundary11to3
    {
        type            processor;
        value           nonuniform List<vector> 2((0.952457 -0.00212434 0) (1.00768 0.00738913 2.93944e-21));
    }
    procBoundary11to9
    {
        type            processor;
        value           nonuniform List<vector> 6((1.08505 0.069921 0) (1.06746 0.0420595 0) (1.02028 0.030676 -1.55556e-20) (1.02481 0.0159798 1.37585e-19) (1.04812 0.09933 9.27153e-20) (0.994823 0.128764 -1.37826e-20));
    }
    procBoundary11to10
    {
        type            processor;
        value           nonuniform List<vector> 4((0.88607 0.0042689 0) (0.970736 0.102859 0) (0.944646 0.0899633 0) (0.911022 0.0575326 9.04534e-20));
    }
}


// ************************************************************************* //
