/*--------------------------------*- C++ -*----------------------------------*\
| =========                 |                                                 |
| \\      /  F ield         | OpenFOAM: The Open Source CFD Toolbox           |
|  \\    /   O peration     | Version:  2412                                  |
|   \\  /    A nd           | Website:  www.openfoam.com                      |
|    \\/     M anipulation  |                                                 |
\*---------------------------------------------------------------------------*/
FoamFile
{
    version     2.0;
    format      ascii;
    arch        "LSB;label=32;scalar=64";
    class       volScalarField;
    location    "34";
    object      p;
}
// * * * * * * * * * * * * * * * * * * * * * * * * * * * * * * * * * * * * * //

dimensions      [0 2 -2 0 0 0 0];

internalField   nonuniform List<scalar> 
918
(
0.601656
1.25401
0.00482872
0.600959
0.00209575
1.22102
-0.454099
0.770332
0.581782
-0.046242
0.0178128
0.576336
1.0818
0.847982
-1.08365
0.107562
0.721232
-0.336389
0.580781
-0.0243501
0.804084
0.588383
0.591419
0.582009
0.643182
0.827786
0.962833
-0.0246223
-0.0162138
-0.0176439
0.0414984
0.0461068
0.0616136
1.10466
1.15575
1.17844
0.550205
0.375717
-0.31493
-0.386125
-0.381702
-0.483774
0.76172
0.763861
-0.124582
0.771456
0.781074
0.569031
0.581144
0.582031
0.58314
0.582083
0.583483
0.457822
-0.0529194
-0.0850782
-0.025497
-0.0153319
0.1264
0.0170444
0.0132362
0.0203985
0.0212089
0.501608
0.57236
0.569492
0.581266
0.589285
1.19355
1.16547
1.1916
1.10534
1.12179
1.05978
1.03231
0.868321
0.890219
0.833654
0.819785
-1.52182
-2.48485
-0.48733
-0.232814
-0.0276937
0.0957365
0.102252
0.712252
0.711583
0.722437
0.734821
1.12532
-0.331426
-0.453715
0.580917
0.579711
0.588102
0.588796
0.584807
0.583903
-0.0168878
-0.00842523
-0.0465362
-0.0293425
-0.0323437
0.793273
0.791961
0.582553
0.579575
0.596572
0.617021
0.608925
0.334875
0.647482
0.660919
0.650008
0.815299
0.81159
0.819596
0.936515
0.899977
0.999778
1.02309
-0.0405314
-0.0525988
0.105509
0.0868549
0.100274
0.546164
0.538932
0.564898
0.553554
0.555955
0.291203
0.155997
0.461646
0.487065
-0.226401
-0.288971
-0.390944
-0.408389
-0.515347
0.649623
0.751132
0.751455
-0.144535
-0.0657966
-0.201518
0.00736036
-0.0532526
0.559457
0.566357
0.561427
0.576772
0.57129
0.57323
0.585367
0.582445
0.584007
0.521976
0.646009
0.384423
0.351984
-0.19725
-0.103931
-0.199504
-0.00320731
0.00273816
0.134136
0.157176
0.114737
0.105962
0.00646731
0.0132785
0.00892123
0.0237099
0.0217596
0.494699
0.484223
0.513772
0.520861
0.562885
0.563951
0.567028
0.565679
0.98311
1.00559
1.013
0.986631
-3.48677
-6.29109
0.0966285
0.235867
-0.0973731
-0.0807656
-0.0451811
0.0253225
-0.0164124
-0.00109336
0.0859177
0.080503
0.0913828
0.0919111
0.69677
0.696043
1.04231
1.04011
1.02611
0.9751
0.568977
0.571099
0.57667
0.572508
0.0168531
-0.00441867
0.0102129
0.780326
0.787518
0.786969
0.298382
0.213312
0.383507
0.410843
0.68228
0.66582
0.679587
0.712763
0.749051
1.03056
1.04876
1.04701
1.05528
1.09925
1.1156
1.08102
0.526353
0.535937
0.531136
0.568131
0.565803
0.566758
0.562166
0.563713
0.561459
0.00374039
-0.380187
0.543398
0.559817
0.53614
0.544416
0.727122
0.800123
0.734234
0.743499
0.743113
0.0731474
0.0162916
0.309323
0.275056
0.437471
0.471977
0.452082
0.954391
0.914436
0.964584
0.938013
0.899125
0.925683
-0.331975
-1.84641
-0.957046
0.591888
0.402761
0.491903
0.0907842
0.0844861
0.0875329
1.03378
1.11317
0.701847
0.866934
0.876882
0.78468
0.815146
0.873907
0.798619
0.834171
0.868898
0.847715
0.606327
0.556651
0.563676
0.868218
0.923243
0.187321
0.133174
0.089144
0.178271
0.230542
0.207031
1.07888
0.97971
1.05118
0.579321
0.58001
-0.0573179
-0.0519711
0.584129
0.584168
0.0356393
0.0649433
0.473406
-0.793644
0.176651
0.5726
0.562912
0.579792
-0.028622
0.416632
0.0122625
0.11862
0.0836458
0.573616
0.511676
0.473014
-0.0949987
0.0891631
-0.0106908
-0.158796
0.576995
0.575306
0.579255
0.580249
0.580906
-0.106543
-0.0604798
-0.111274
-0.0388534
-0.0423897
-0.0363725
0.544618
0.561649
-0.111076
0.579368
0.581507
0.581315
0.574468
0.580154
0.578369
0.0701612
0.0625904
0.0927604
0.283622
0.403306
0.720438
0.815881
0.686152
0.459225
0.220068
0.620269
0.685706
0.588159
0.746521
0.744365
0.763437
0.239584
0.0920987
0.247691
0.190255
0.570466
0.569115
0.561144
0.558262
0.574654
0.572754
0.577293
0.57424
0.577227
0.578652
0.0106676
-0.0105497
-0.0278424
-0.0882053
0.373176
0.63297
0.310189
0.341079
0.211415
0.0253429
0.0228797
0.0103535
0.00659121
0.0658786
0.0659546
0.115541
0.122617
0.102156
0.0814832
0.0628365
0.0599349
0.0517681
0.567514
0.566199
0.572114
0.580724
0.520861
0.524695
0.491173
0.510859
0.496999
0.437824
0.472408
0.447834
0.0108704
-0.0393134
-0.0103317
0.0794387
0.0841958
-0.010358
-0.0554205
-0.044524
-0.0468635
-0.0479571
0.00343069
0.00428298
-0.118185
-0.231596
1.02958
0.969305
0.169143
0.566211
0.572613
0.569412
0.574211
0.577297
0.578148
0.575911
0.572487
0.56225
0.56403
0.560387
0.561013
-0.0503066
-0.188517
-0.0126122
-0.0799823
0.185206
0.675897
0.416444
0.356849
0.350749
0.572367
0.970085
0.765907
0.76199
0.785009
-0.298021
0.098699
-0.230827
0.387443
0.209561
0.720345
0.769368
0.790051
0.73838
0.690378
-0.0667451
0.593256
-0.000597811
0.0446156
0.23722
0.129336
0.763351
0.727799
0.733392
0.750898
0.76995
0.733339
0.713413
0.708305
0.746931
0.751273
0.548123
0.316711
0.272081
0.233317
0.711457
0.589029
0.646658
0.559283
0.565388
0.568191
0.566759
0.549263
0.556589
0.552297
0.558095
0.561278
0.570385
0.570729
0.566145
0.568318
0.00773937
0.00591305
0.0234473
-0.0836328
-0.0718925
-0.131557
-0.0142371
0.123677
0.0874276
0.280451
0.386928
0.0998856
-0.0149819
0.0151065
0.0455276
0.224912
0.249844
0.130721
0.227185
0.206799
0.193152
0.296134
0.305208
0.0387266
0.0310245
0.0271388
0.0260424
0.0873049
0.160769
0.170182
0.0674255
0.0603945
0.0223351
0.0274408
0.0360986
0.0335154
0.0355848
0.0748165
0.00792968
0.0653386
0.0709973
0.0700508
0.0698858
0.0644517
0.560991
0.562909
0.562695
0.570106
0.586708
0.601806
0.562247
0.542635
0.533648
0.536628
0.510394
0.520307
0.516713
0.529208
0.549552
0.558022
0.556281
0.558745
0.542123
0.543536
0.531051
0.534639
0.511176
0.492721
0.481091
-0.00843175
-0.0259
-0.00831418
-0.00546139
0.003709
0.0188401
0.0806218
0.0927531
0.0771079
0.0795906
0.06954
0.000953054
0.00664191
-0.0274634
0.0505628
-0.134872
-0.167443
-0.236662
0.934261
1.05295
0.859682
0.636286
0.647118
0.885922
0.9723
0.599096
0.781034
0.805403
0.62197
0.883914
0.571029
0.570595
0.568189
0.567678
0.56891
0.0383636
0.13885
0.148416
0.202587
0.317511
0.430885
0.355604
0.229256
0.362666
0.367923
0.671105
0.686789
0.634044
0.657655
0.655019
0.483175
0.561079
0.616628
0.568899
0.615002
0.637355
0.598075
0.62852
0.574143
0.530733
0.529278
0.476387
0.497074
0.475476
0.457551
0.560507
0.538347
0.548836
0.539619
0.558898
0.585045
0.580439
0.608105
0.619238
0.544298
0.504099
0.513847
0.54249
0.502778
0.515906
0.531549
0.269051
0.169055
0.252512
-0.0397894
0.0409955
0.0257118
-0.0212672
0.0244554
0.31057
-0.388176
-0.361258
-0.994117
0.533112
1.00148
0.716929
0.688783
0.765679
0.744422
0.747035
0.769756
0.776874
0.701016
0.719096
0.722878
0.678962
0.702776
0.724964
0.722906
0.567258
0.441692
0.432814
0.393196
0.268295
0.301791
0.504354
0.426737
0.35325
0.356872
0.519242
0.408161
0.474428
0.512867
0.444499
0.399565
0.603181
0.66992
0.660078
0.635502
0.550955
0.564219
0.589373
0.625495
0.652666
0.684516
0.557882
0.563641
0.564922
0.562421
0.559585
0.562515
0.562606
0.565125
0.565974
0.568879
0.567873
0.0143952
0.0258698
0.016873
0.00941864
0.0353985
0.0293033
0.0726265
0.0588605
0.0491701
0.0565475
0.028494
0.0236546
0.0297777
0.0393793
0.150491
0.164191
0.147171
0.107556
0.292972
0.425349
0.494126
0.371835
0.266157
0.289802
0.314472
0.0457958
0.0765571
0.0610644
0.103348
0.091405
0.0374715
0.0254253
0.0280948
0.0396978
0.0502039
0.0276031
0.0241756
0.0342324
0.031425
0.0256012
0.0102608
0.544692
0.538294
0.539515
0.533726
0.532649
0.546162
0.550463
0.552155
0.557435
0.559345
0.550004
0.555354
0.558875
0.0628872
0.014649
0.0244608
0.0370152
0.0257534
0.0238175
0.0259159
0.16332
0.0888792
0.094406
0.0521341
-0.0726996
-0.0163712
0.529288
0.527841
0.528804
0.755951
0.607329
0.527345
0.624044
0.729494
0.311946
0.511238
0.344136
0.924575
0.817331
0.962495
0.580883
0.281748
0.436202
0.486283
0.295599
0.368204
0.372867
0.262785
0.294363
0.325863
0.426007
0.305331
0.279907
0.0382571
0.226739
0.342425
0.323448
0.45132
0.514448
0.30154
0.222037
0.17633
0.663034
0.682509
0.702162
0.672035
0.696736
0.62001
0.611112
0.629138
0.636879
0.631555
-0.722453
-0.430493
-1.37466
-0.690161
-0.241073
0.562258
0.526501
0.803399
0.691993
0.756662
0.74214
0.702863
0.668992
0.680346
0.712916
0.412763
0.522982
0.497456
0.503321
0.405603
0.338896
0.638349
0.632418
0.667954
0.692274
0.660082
0.693266
0.555527
0.555208
0.554857
0.551333
0.549766
0.551903
0.111383
0.0822838
0.113784
0.0964792
0.0757791
0.0637093
0.0635414
0.0527608
0.0477309
0.043931
0.0713343
0.0698657
0.205946
0.147337
0.0697091
0.100334
0.041474
-0.0252554
-0.0435072
0.0555723
0.148305
0.138859
0.442994
0.693884
0.515609
0.684129
0.523282
0.578907
0.518994
0.509528
0.538566
0.421262
0.500467
0.261589
-0.240552
-0.149771
0.818427
0.83714
0.618948
0.432598
0.203822
0.392921
0.594041
0.53028
0.568817
0.637692
0.629774
0.0491062
0.116614
0.375466
0.603745
0.273467
0.264649
0.259736
0.433786
0.358495
)
;

boundaryField
{
    wall-4
    {
        type            zeroGradient;
    }
    velocity-inlet-5
    {
        type            zeroGradient;
    }
    velocity-inlet-6
    {
        type            zeroGradient;
    }
    pressure-outlet-7
    {
        type            fixedValue;
        value           uniform 0;
    }
    wall-8
    {
        type            zeroGradient;
    }
    frontAndBackPlanes
    {
        type            empty;
    }
}


// ************************************************************************* //
