/*--------------------------------*- C++ -*----------------------------------*\
| =========                 |                                                 |
| \\      /  F ield         | OpenFOAM: The Open Source CFD Toolbox           |
|  \\    /   O peration     | Version:  2412                                  |
|   \\  /    A nd           | Website:  www.openfoam.com                      |
|    \\/     M anipulation  |                                                 |
\*---------------------------------------------------------------------------*/
FoamFile
{
    version     2.0;
    format      ascii;
    arch        "LSB;label=32;scalar=64";
    class       surfaceScalarField;
    location    "34";
    object      phi;
}
// * * * * * * * * * * * * * * * * * * * * * * * * * * * * * * * * * * * * * //

dimensions      [0 3 -1 0 0 0 0];

oriented        oriented;

internalField   nonuniform List<scalar> 
1300
(
3.75095
5.62643
-3.26775
3.75095
-5.49896
5.62643
-4.44344
4.44344
-0.985115
0.985115
1.87643
1.87452
-2.95762
2.95762
-2.3823
2.3823
-2.5596
2.5596
-5.24639
5.24639
-5.06802
5.06802
4.66755
-4.66755
-5.88087
5.88087
-1.34598
1.34598
-3.81866
3.81866
3.16978
-3.16978
-2.28052
2.28052
-0.260815
0.260815
-0.553529
4.30448
3.19742
3.19742
-2.05014
2.05014
-4.86293
4.86293
6.21804
-6.21804
4.69447
-4.69447
-1.42671
-2.52973
0.687748
-10.2669
-4.81121
-4.81121
-8.4404
8.4404
-2.81397
2.81246
2.94362
-2.94362
-1.77958
1.77958
-4.38454
-0.0588924
-4.38454
4.43385
0.00958931
4.43385
-1.08003
0.0949183
-1.08003
3.92624
-3.92624
0.848824
0.136292
0.848824
3.06476
-3.06476
-1.87705
3.75348
1.87391
-1.87186
6.17634
-1.87909
3.75361
-5.94909
5.94909
-3.17372
0.216102
-3.17372
2.77073
0.186893
2.77073
-6.73127
6.73127
-2.39877
0.0164642
-2.39877
2.39831
-0.0160092
2.39831
2.86695
-2.86695
-2.65856
0.0989554
-2.65856
2.45129
0.108307
2.45129
0.353544
5.27289
-5.97997
8.79244
-5.27289
0.0264944
5.20839
0.0380027
5.20839
-5.10585
0.0378306
-5.10585
5.01242
0.0555956
5.01242
4.75844
-0.090883
4.75844
-4.7823
0.114751
-4.7823
-3.52147
-5.32791
-6.1532
0.27233
-6.1532
-1.3469
0.000921209
-1.3469
1.30371
0.0422657
1.30371
-3.59844
3.59844
-4.20434
0.385686
-4.20434
3.1242
0.0455847
3.1242
1.8685
1.88245
5.61946
-5.61946
2.44968
-2.32079
0.0402611
-2.32079
-2.29571
-2.39876
2.2957
-0.0151801
-0.525333
0.264518
-0.525333
3.15927
0.0381525
3.15927
2.29375
0.157543
-2.29375
0.24361
3.20862
-3.20862
1.40943
0.640711
1.40943
-5.56769
5.56769
4.95345
0.0589772
-4.95345
0.0905189
6.15637
0.0616637
6.15637
-6.19954
-0.0184962
-6.19954
1.81661
-4.34634
-3.10398
5.42899
0.451883
-5.42899
0.617774
2.91408
0.0295315
2.91408
-2.92101
2.92101
-2.98305
0.0394389
-2.98305
-2.18163
0.402054
-2.18163
1.47821
0.301373
1.47821
-4.25439
-0.130152
-4.25439
-4.34944
0.145093
4.34944
0.0844107
1.08971
-1.08971
-1.19062
0.110591
-1.19062
-4.08094
-0.173449
4.08094
-0.154708
-3.79984
-0.1264
-3.79984
-3.02344
0.0403874
3.02344
0.0413151
3.11258
0.0466935
-3.11258
0.0478221
-1.87083
3.75328
-1.88012
3.75403
-5.56717
-0.381925
-5.56717
6.25729
-0.308193
6.25729
3.51471
0.303948
-3.51471
0.340986
2.62802
0.142705
2.62802
-6.70542
-0.0258476
-6.70542
6.7031
0.0281638
6.7031
2.49845
0.129578
-2.49845
0.0996799
2.35771
0.0406014
2.35771
2.88194
-0.01499
2.88194
-2.86473
-0.00221705
-2.86473
2.801
-2.801
2.73395
0.0670495
-2.73395
0.0753964
-11.1328
11.1143
-0.035035
-11.0978
5.17335
5.17335
4.18725
0.571185
4.18725
-4.99718
0.214875
-4.99718
2.63312
-5.7371
4.48807
-8.00955
5.44036
-15.7072
3.87954
-9.20745
6.52233
-6.52233
6.36257
0.159769
-6.36257
0.209364
-1.37153
0.0246349
-1.37153
-2.99162
-0.606819
-2.99162
4.25281
-0.654375
4.25281
-3.02898
3.02898
-3.07791
0.0489328
3.07791
0.0462883
2.33326
0.024453
-2.33326
0.0124713
0.690617
0.158206
-0.690617
0.165284
3.40019
-0.191562
3.40019
-3.03063
-0.177989
-3.03063
-1.39023
0.0186931
1.39023
0.0192026
-5.81538
0.247691
-5.81538
-11.1908
0.0930166
-11.1528
-6.10653
-6.10653
2.33387
11.1263
-2.88675
0.0220229
2.88675
0.0273285
2.97613
0.0528462
-2.97613
0.055115
-2.86286
0.0618571
2.86286
0.058155
-2.55944
0.377803
-2.55944
-1.07009
1.07009
-1.24284
0.172756
1.24284
0.235364
1.34017
-0.25046
1.34017
1.25887
0.0448481
-1.25887
0.068241
-3.68853
-0.111303
-3.68853
6.4821
-0.224808
6.4821
-2.93429
-0.0963433
2.93429
-0.0523514
-0.0333542
11.1477
-5.14
0.0341495
5.14
-11.2093
11.2435
-3.23363
0.674199
3.23363
0.953615
5.28875
0.278936
-5.28875
0.291574
6.64069
0.062415
-6.64069
0.118354
-2.5017
-0.489912
-2.5017
-4.98261
-0.584558
4.98261
-0.729801
-11.4749
-0.203029
11.6779
-11.4193
6.01841
0.137966
-6.01841
11.3815
-1.00734
-0.0823728
1.00734
0.0627454
1.65552
-0.315351
1.65552
3.58368
-0.183494
-3.58368
-0.104854
-6.62843
-0.0769845
6.62843
-0.146339
-2.06391
-0.437792
2.06391
-0.408388
-4.26698
4.30513
1.90937
-2.02108
-2.32526
-4.41984
1.85202
1.90127
4.30169
-10.1864
-5.52085
-9.56861
7.26643
-6.97485
-9.27058
9.1797
7.62753
-7.75393
-5.78533
5.83161
6.48215
-6.44084
1.87863
1.87485
7.88782
-7.67172
-15.6972
15.3153
7.47642
-7.45995
15.8045
-15.8303
-17.8207
17.8831
-5.7208
5.81976
-6.72586
6.72364
-6.9439
6.89155
-3.30829
-4.70125
13.0607
-12.7883
7.81808
-7.77782
-8.50908
8.89477
3.38246
0.922668
3.42915
-1.8823
3.76093
-1.87131
3.78068
3.12802
-6.43631
2.60908
-4.93434
3.55281
4.26527
-3.53763
-0.882209
-5.91888
5.94841
-5.82158
5.87973
8.96936
-9.02825
-1.88518
3.76003
-1.86885
3.77011
-3.42519
-2.36013
3.37961
0.922086
7.79091
5.26977
-8.24279
-1.32582
-7.87188
7.68839
-8.14956
7.97157
-0.44105
5.82023
-5.37918
4.42188
-1.55875
7.37898
5.70768
5.92256
5.86708
-5.58814
1.10778
-6.48696
-6.39644
-2.53273
2.64332
2.46926
-2.33297
5.98704
1.64049
5.83233
-5.58505
-2.16888
-5.69636
3.82118
2.01043
3.87011
4.07674
2.40541
4.11713
3.03082
-3.03577
0.00495072
-3.05632
6.08714
0.724261
-5.41646
-4.49437
4.93543
2.95239
5.12232
-5.47702
-2.1947
-5.13604
-9.5729
-6.12434
-10.1575
10.1288
5.18654
9.82058
-11.9913
11.845
4.77904
2.69738
4.76303
-4.92855
-2.53141
-4.82887
11.6519
-2.56218
-9.0897
-10.309
-7.5117
10.2808
5.5237
10.918
6.96511
11.0363
4.42078
7.2311
-9.94448
2.43278
-3.86851
-1.85229
-3.79311
3.69218
2.12758
3.80048
-4.21303
-2.51284
-4.191
-4.28644
-2.65746
4.30143
2.42221
-4.39914
-3.75043
4.49548
2.39607
4.91647
-10.4373
4.29098
-8.99223
-9.17439
-3.61396
-8.96502
3.78774
3.11627
-6.90401
-2.64857
8.46512
-4.19985
7.58291
-4.65771
-3.12011
-4.64524
-6.8029
-1.70618
-6.65781
-8.89842
8.4085
-9.20963
8.55525
12.6529
-5.7102
-6.94275
-3.96812
-2.47272
3.9203
-0.491145
-3.711
3.71595
0.049931
3.83061
4.75328
4.26213
-3.88711
-1.93447
-3.83199
3.83236
2.04737
3.89422
6.75089
2.21847
6.76048
-6.46768
-2.56057
-6.59784
9.07048
-8.66843
2.89584
-2.87714
5.29944
2.67214
-5.10787
-2.76401
6.21013
-3.15356
-3.05658
-12.2102
10.5587
1.65158
-4.83126
-0.409384
-0.148569
-5.49882
-3.77177
5.38406
0.538492
11.0972
7.32539
-5.51361
5.7613
6.16431
6.22328
-0.17316
5.83254
-5.15834
5.31736
-2.42442
-2.89294
5.32294
-5.49639
-1.27489
-5.34721
4.07231
0.335943
1.72606
-1.46154
-1.99706
-0.53567
-1.92882
1.47798
0.99128
1.63619
0.961974
1.68135
-2.95435
0.556704
2.39764
-1.99237
-1.77626
-3.69354
-1.04277
4.73632
5.594
2.09439
-5.48914
-0.207211
2.6872
-2.64494
-0.77208
-2.92146
2.1376
-2.90968
-3.63713
-1.89711
5.53424
-3.37072
-0.461275
3.31787
0.552245
-3.82536
-2.09351
3.78592
0.331204
-3.12473
6.19033
-3.0656
-5.05921
2.52873
3.55842
4.53916
-4.78986
2.44634
2.34353
-1.23145
4.22271
0.899615
4.36541
-6.74199
4.5473
5.74417
3.1506
-6.04812
0.912083
-5.82991
8.44992
-7.27603
-1.1739
4.07184
4.37808
7.15703
5.49591
-5.72647
12.8835
-1.15543
-6.1206
6.98534
-3.83474
4.7777
-8.61244
-10.2736
4.15301
-9.24969
11.012
-1.76232
-3.61747
-8.37384
12.8672
-1.22193
-11.6452
8.59865
-4.20997
-4.25701
8.46699
-6.77215
6.78842
-1.96662
-4.82181
-10.1364
-5.69394
10.2134
1.63159
-9.82967
12.2625
-2.59857
4.01382
0.749209
4.05442
3.25295
-5.39299
2.14004
3.51921
-5.48582
2.07272
-7.46571
-6.89592
12.3693
-5.47342
-10.5099
-9.5903
-0.919584
2.49306
9.76939
-9.45817
7.35923
2.09894
3.30982
0.584396
-3.37687
-0.416242
0.260694
4.53816
-4.79885
4.06118
4.21872
3.35561
1.18255
3.83982
2.10858
-3.86715
-0.32385
-4.15555
1.4981
-1.73334
-3.66415
5.16225
-4.06359
0.399439
-2.73257
-3.50818
6.24075
-4.58486
3.03929
3.15104
5.08667
-4.91202
1.40385
-2.40108
-2.51095
2.65974
-4.39308
1.95768
3.20457
4.35375
0.603322
6.19864
6.1707
-9.31491
0.322671
11.4405
-10.1146
2.5105
8.52582
-9.86973
0.279434
-8.68559
1.38307
-5.58292
-5.52094
5.10008
-6.80627
-3.51236
6.14218
0.618302
-6.22659
-0.431218
-6.04561
-2.8528
-6.4834
-3.06167
-6.14796
-8.78814
-1.65373
-7.13442
6.75478
-6.69919
-3.45826
7.42899
1.12626
-7.40825
7.32588
-7.49147
7.17612
0.094867
3.62108
4.357
1.88428
-2.38964
4.27392
-5.08422
7.30269
-8.59739
3.51316
4.05592
-6.61649
-4.54146
5.0347
4.03578
5.33608
8.93158
-10.4385
1.50697
-10.7427
12.0793
-1.33661
-16.5203
5.77767
-7.58876
2.62581
0.270026
2.65045
0.643788
2.44715
-3.09094
-2.23336
-2.21415
-2.35564
-3.44578
5.80143
1.16368
-3.44418
2.2805
-3.50177
4.66545
-0.0756179
-3.36856
5.2982
-2.85105
5.56823
-3.57739
1.99084
3.35909
5.72421
-2.36512
4.36723
-1.6951
1.84256
-4.20768
-1.60323
-2.96712
5.0947
-3.27363
3.67307
-0.295846
3.96891
-4.08441
0.930855
-0.728802
3.48992
3.73353
4.28588
-3.10333
2.97838
-4.67347
-1.2293
-4.07015
-0.865585
-0.303966
-3.7563
4.06027
6.03009
-6.33406
-5.25854
9.56275
-4.30421
7.71662
-5.40264
-2.31398
-4.27058
-4.39785
3.89278
1.93976
9.65639
0.208999
-5.61164
-4.94934
-3.99573
3.2109
2.10646
-1.92399
3.57557
2.07256
-0.346499
0.561829
1.07436
1.85796
-1.29613
0.221902
1.63606
-1.23964
1.97218
0.715025
-2.01703
0.0882082
-1.35282
3.49042
1.04482
-2.0361
0.739967
1.06279
-3.48721
4.85217
-2.49345
-2.35872
5.91496
1.16571
-3.65915
4.1815
-3.84556
2.33416
-3.37693
-1.32499
-5.17055
-3.53006
-2.55424
4.83474
-3.24719
5.34158
1.19761
-5.13437
6.33198
-3.58627
1.68916
-3.07645
3.79147
-1.07918
-1.99727
2.81698
2.71726
-2.9481
0.026638
-0.131118
2.33755
-2.46867
-0.57213
-2.5645
-4.57177
4.90298
-2.10756
4.5539
2.16636
-1.91445
6.46835
1.81134
-3.72579
-3.24786
-3.70914
-1.38227
3.15689
-0.56753
-4.26134
-5.38934
4.13176
0.233653
-6.85949
7.66917
-0.809688
-3.90709
-0.640202
4.71204
-5.95889
0.473072
-3.88618
3.783
4.68261
4.91626
-11.4449
-0.200351
-6.25834
1.14793
-7.40628
5.52602
-3.58944
7.74246
-10.4203
6.96206
-9.29406
6.56856
-0.837718
6.25554
-4.1155
2.83416
-8.5281
-6.89651
5.43821
-2.74083
6.18742
-3.12758
9.315
-5.72615
5.16701
4.14799
-0.703965
-3.94127
-5.30462
4.60065
-0.137606
3.91682
4.97362
-2.86504
4.64977
2.25615
-4.65722
-2.13693
-6.49821
1.84099
-3.34717
-1.91622
3.75721
3.17045
3.75484
1.24626
-3.3386
7.33101
-8.2506
-1.85759
-3.66334
5.37125
-0.770601
3.33178
-6.99512
-2.25114
4.86424
-0.795256
-4.06898
0.845959
-4.35832
1.65465
-6.01297
5.15161
-5.58283
2.21101
-9.79977
-5.19724
-5.13449
-2.24917
-5.2423
-7.61079
5.36162
-1.83312
5.49276
-8.58415
7.78889
-3.49513
8.85675
-5.4384
-1.04501
5.84678
1.32933
10.1861
0.165639
-4.7071
-1.87458
3.94087
-2.06629
1.33632
-3.59067
0.350202
2.47997
3.43498
-6.55229
-0.0642032
-4.77131
-3.92168
7.95746
5.64107
11.6712
1.23261
9.14901
-1.19156
10.3816
4.14452
4.37988
-3.04089
4.54786
1.01938
4.53254
-0.836059
2.82689
1.81439
1.81531
0.82963
2.31664
1.41689
3.2475
0.156555
-2.0576
4.63807
-8.63379
-0.973577
-8.06261
1.11709
5.72726
-4.61018
3.0989
-0.99244
1.03261
0.0964785
-1.61387
1.5174
-2.79646
-1.96037
-0.324312
-1.61859
2.35856
1.87183
-2.03425
-0.762216
0.327372
-3.85743
3.04956
-3.02292
-0.305663
6.02631
-2.7527
0.284032
-1.06354
-2.28047
-2.81614
2.72793
6.17746
0.290885
3.11186
5.19386
3.10035
0.23531
3.91676
-5.67908
-3.54894
-5.87943
-0.353411
4.35863
1.78837
7.98102
5.93636
5.16576
-1.82936
-10.08
6.58713
-2.03927
5.25052
-1.18154
-4.83143
4.97813
2.32456
-5.59643
0.013605
-4.81783
-6.8571
-0.523045
8.31194
-9.66303
8.61803
5.76522
1.36919
-4.40733
-0.727165
4.23457
0.145309
10.5269
-1.12959
-6.81574
7.94533
-4.59767
3.6241
0.834501
2.74107
2.3519
1.35946
-5.45628
-10.0665
-1.9159
-1.5713
-4.27462
0.461692
-2.33352
6.24985
-2.62575
3.93587
5.31958
6.35219
-2.1597
-4.17435
6.46391
-2.52804
3.82415
)
;

boundaryField
{
    wall-4
    {
        type            calculated;
        value           uniform 0;
    }
    velocity-inlet-5
    {
        type            calculated;
        value           uniform -3.75095;
    }
    velocity-inlet-6
    {
        type            calculated;
        value           uniform -5.62643;
    }
    pressure-outlet-7
    {
        type            calculated;
        value           nonuniform List<scalar> 8(3.26775 5.49896 3.95644 9.57913 8.84938 4.92059 7.12119 9.3199);
    }
    wall-8
    {
        type            calculated;
        value           uniform 0;
    }
    frontAndBackPlanes
    {
        type            empty;
    }
}


// ************************************************************************* //
