/*--------------------------------*- C++ -*----------------------------------*\
| =========                 |                                                 |
| \\      /  F ield         | OpenFOAM: The Open Source CFD Toolbox           |
|  \\    /   O peration     | Version:  2412                                  |
|   \\  /    A nd           | Website:  www.openfoam.com                      |
|    \\/     M anipulation  |                                                 |
\*---------------------------------------------------------------------------*/
FoamFile
{
    version     2.0;
    format      ascii;
    arch        "LSB;label=32;scalar=64";
    class       volVectorField;
    location    "34";
    object      U;
}
// * * * * * * * * * * * * * * * * * * * * * * * * * * * * * * * * * * * * * //

dimensions      [0 1 -1 0 0 0 0];

internalField   nonuniform List<vector> 
918
(
(0.985166 -0.000497886 0)
(0.00500955 2.96625 0)
(-0.0412179 0.859132 0)
(0.979701 0.00215119 0)
(-0.0735391 1.47319 -3.37097e-20)
(-0.00704196 2.94879 -2.61751e-18)
(0.832187 1.17599 3.99328e-19)
(0.326604 0.148978 -1.70988e-20)
(0.999907 -0.000290194 0)
(0.0486237 0.841291 0)
(0.000274588 0.654377 0)
(0.734522 -0.0114788 0)
(0.0111257 2.93032 0)
(0.00263235 2.79473 0)
(-0.0175823 3.15708 7.3969e-19)
(-0.0383378 1.82517 -9.55572e-20)
(0.400891 0.047533 1.12559e-18)
(0.19032 1.18752 2.71709e-19)
(0.962789 0.00502849 0)
(-0.0113176 0.63596 0)
(0.0776839 0.192838 -8.05024e-19)
(1.00197 -0.00498284 0)
(1.00022 -0.00979741 0)
(0.975717 -0.00644228 0)
(0.586404 -0.03849 0)
(0.0161505 2.63799 0)
(-0.0148786 2.91003 9.73288e-19)
(-0.0472952 0.809504 0)
(-0.150424 1.04854 0)
(-0.0418234 0.820871 0)
(-0.239368 2.5465 0)
(-0.135442 1.66032 2.662e-20)
(-0.120267 1.46984 0)
(-0.0206093 2.9876 -9.45333e-23)
(-0.0166914 3.0053 2.03436e-18)
(0.00210534 3.00019 0)
(0.870506 -0.00950424 0)
(0.403493 0.936877 2.072e-19)
(0.813274 1.19205 -4.12035e-19)
(0.96211 1.03112 4.73684e-19)
(0.683132 1.28506 -9.36397e-20)
(0.679679 1.27055 5.39096e-19)
(0.36786 0.235512 1.66813e-20)
(0.342274 0.118716 0)
(1.1385 0.554395 0)
(0.332551 0.23448 7.62587e-20)
(0.293299 0.158363 -7.91369e-20)
(0.919697 -0.00745425 0)
(1.00027 0.000136299 0)
(0.999909 0.000327998 0)
(1.00364 -0.00777824 0)
(1.00096 -0.000927978 0)
(1.00017 2.8212e-05 0)
(0.079771 1.79715 -8.7737e-19)
(0.032208 1.00312 0)
(0.0869059 0.904746 0)
(0.0214324 0.956647 0)
(0.0337533 0.774482 0)
(0.0229551 1.99905 0)
(-0.00665235 0.810153 0)
(0.0210178 0.659181 0)
(-0.00595421 0.812416 0)
(-0.00576803 0.661636 0)
(0.836494 -0.0152964 0)
(0.850613 0.027572 0)
(0.768267 -0.00172343 0)
(0.824007 0.0362105 0)
(0.702672 -0.0164478 0)
(0.0146938 3.0004 9.72394e-19)
(0.0115133 3.008 0)
(0.00612089 3.00279 0)
(0.0135528 2.99736 1.10671e-23)
(0.00797468 2.95846 -1.44522e-18)
(0.0144826 2.982 0)
(0.0108224 2.90362 0)
(0.0249308 2.93034 2.25727e-24)
(0.00441562 2.82495 0)
(0.0312395 2.91596 0)
(-0.00570703 2.74553 0)
(0.308578 3.55403 0)
(-0.131848 3.63565 0)
(0.139696 3.24745 6.88367e-19)
(-0.0125064 2.98254 0)
(-0.262121 2.36174 0)
(-0.0614773 2.00175 9.42258e-20)
(-0.00822964 1.89972 -8.84628e-20)
(0.488047 0.147752 -3.89453e-19)
(0.398888 0.0269489 -3.76123e-19)
(0.473183 0.170972 -1.17294e-18)
(0.385445 0.0679748 -7.73642e-19)
(0.217553 0.938322 0)
(0.2723 1.32667 -3.36935e-19)
(0.37752 1.27185 5.67019e-19)
(0.987496 0.00856147 0)
(0.941933 0.00586967 0)
(1.0003 0.000577237 0)
(1.00287 0.00930342 0)
(1.00302 0.00846641 -2.97029e-18)
(0.991916 0.00969344 2.24311e-18)
(0.00322193 0.780457 0)
(-0.00882671 0.634006 0)
(-0.0111099 0.842747 0)
(-0.0165264 0.78182 0)
(0.0172715 0.627057 0)
(0.122222 0.199804 2.48922e-19)
(0.178263 0.177854 0)
(0.993534 -0.00838542 0)
(0.954398 -0.00652864 0)
(0.776382 0.0450432 0)
(0.714537 0.0549814 0)
(0.660532 -0.0304875 0)
(0.951372 -0.0101195 0)
(0.632852 0.0681661 0)
(0.461925 -0.0190477 1.63633e-18)
(-0.0363797 2.86434 7.46867e-19)
(0.0420547 2.90952 0)
(0.054784 2.8847 0)
(-0.0043101 2.69892 0)
(-0.0132971 2.98507 9.26094e-19)
(-0.0180423 2.89509 0)
(-0.015451 2.98807 -2.86229e-18)
(-0.0133217 2.92518 9.78563e-19)
(-0.14752 1.1505 0)
(-0.19083 1.3281 0)
(-0.102667 1.94981 -2.96541e-21)
(-0.116822 1.83768 0)
(-0.0869485 1.67296 0)
(0.937717 -0.00765093 0)
(0.856031 -0.00940129 0)
(0.863582 0.00665325 0)
(0.949026 -0.00799489 0)
(0.883516 -0.00816996 0)
(0.515635 1.13076 -2.60307e-19)
(0.565202 1.18255 0)
(0.367453 0.880897 3.74733e-20)
(0.309756 0.740497 0)
(0.921396 1.0693 -1.26731e-19)
(1.03294 0.871657 2.49976e-19)
(0.372976 1.37671 0)
(0.537158 1.34719 0)
(0.544981 1.3009 0)
(0.111376 0.182831 -3.19204e-19)
(0.401677 0.220293 0)
(0.368587 0.111002 2.18061e-19)
(1.00288 0.926024 0)
(1.06731 0.773561 0)
(1.09263 0.71475 -1.76967e-19)
(1.11869 0.614965 0)
(1.1634 0.398652 5.48622e-20)
(0.957404 -0.00888143 0)
(0.962307 -0.0101298 0)
(0.90138 -0.00795469 0)
(0.984161 -0.00918034 0)
(0.97461 -0.00940393 0)
(0.937019 -0.00639015 0)
(1.00019 0.00233863 0)
(1.00091 0.00139346 0)
(0.999913 0.000851141 0)
(0.0332843 2.05649 4.82083e-19)
(0.120428 1.73829 0)
(0.0132809 2.17162 3.62603e-19)
(0.0544969 1.85657 -6.55994e-19)
(0.105192 1.1913 -2.21626e-19)
(0.0467065 1.07836 0)
(0.142182 1.05105 0)
(0.0118456 0.911178 0)
(0.0203122 0.728576 0)
(-0.00445005 2.20341 -1.76423e-21)
(0.0337687 1.99254 0)
(-0.00555934 2.17927 -9.61176e-20)
(0.0272935 2.00004 -1.04154e-20)
(0.0160619 0.868046 0)
(0.00854088 0.830418 0)
(0.0241499 0.692485 0)
(-0.0050389 0.806328 0)
(-0.022449 0.648098 0)
(0.934352 0.00877959 0)
(0.843582 -0.0147414 0)
(0.924767 -0.0004383 0)
(0.839042 -0.0124866 0)
(0.81277 0.00235417 0)
(0.902661 0.0191354 0)
(0.879952 0.0235173 0)
(0.789662 0.000767124 0)
(0.0057462 3.06483 -9.15517e-21)
(0.0165169 3.05777 0)
(0.0146254 2.96908 0)
(0.00862307 2.87632 0)
(0.925475 3.97062 0)
(1.24014 3.30262 9.24967e-19)
(0.0701838 3.07481 0)
(-0.0283831 2.90577 0)
(-0.0871585 1.49928 0)
(-0.183345 2.19091 0)
(-0.239461 1.90052 0)
(-0.210227 2.52061 2.68213e-20)
(-0.223119 2.4731 0)
(-0.247503 2.48388 0)
(0.0194616 1.97906 1.76247e-21)
(-0.0167767 2.08731 7.27565e-20)
(-0.0328837 2.04294 9.00196e-20)
(0.00398614 1.94912 0)
(0.514354 0.121536 5.8387e-19)
(0.41471 0.00528693 -5.73559e-19)
(0.261161 1.56747 0)
(0.266347 0.714524 -3.25488e-19)
(0.177733 1.65211 -1.09902e-18)
(0.227423 1.18356 1.10189e-18)
(0.902321 0.0065803 0)
(0.967538 0.010973 0)
(0.974624 0.0107519 0)
(0.923485 0.00652374 0)
(-0.0115088 0.80725 0)
(-0.00237892 0.795451 0)
(-0.00528375 0.63463 0)
(0.28326 0.230468 7.01121e-19)
(0.232661 0.212023 -8.29281e-19)
(0.245119 0.170876 0)
(1.07412 0.081983 3.30796e-20)
(1.05498 0.0369146 0)
(0.995486 0.0370503 0)
(0.893603 -0.00865399 0)
(0.538626 0.095749 0)
(0.570593 0.0740689 -2.61918e-18)
(0.432706 -0.00346491 9.83412e-19)
(0.00914366 2.98137 7.91999e-19)
(-0.0326194 2.86612 4.69004e-20)
(0.00366432 3.05027 -1.93234e-20)
(0.0201054 3.04336 6.86041e-19)
(-0.0149799 2.99655 3.2076e-20)
(-0.0129673 2.94943 -1.28921e-22)
(-0.0172883 3.01196 -5.91061e-19)
(0.0148819 3.02381 4.28235e-19)
(0.00739231 3.03691 -6.80321e-19)
(0.932204 -0.00228766 0)
(0.938263 -0.00396766 0)
(0.843668 -0.00859924 0)
(0.956808 0.0116371 0)
(0.943229 0.012811 0)
(0.881926 0.00621858 0)
(0.918586 0.0158122 0)
(0.926849 0.0144647 0)
(0.838988 0.00444214 0)
(0.719298 1.41 7.95308e-21)
(0.753037 1.51939 0)
(0.192166 0.333193 7.81219e-20)
(0.215052 0.653311 6.29481e-19)
(0.258633 0.717111 -3.6327e-19)
(0.267035 0.53939 7.22869e-19)
(0.327089 0.77732 1.66971e-18)
(0.129093 0.218244 3.85382e-19)
(0.448219 0.193518 -8.09609e-19)
(0.424922 0.210183 2.12804e-19)
(0.379704 0.0934723 4.08043e-19)
(1.15288 0.457098 -6.76863e-21)
(1.16348 0.251641 -1.45771e-20)
(0.00319206 2.20921 3.07369e-19)
(0.0539412 1.92282 0)
(0.960968 0.0266799 0)
(0.937453 0.0122575 0)
(0.85964 -0.0186204 0)
(0.0113504 3.07456 0)
(0.0199339 2.94421 1.26837e-18)
(0.0164406 2.95645 0)
(0.00622589 2.85055 -1.25825e-18)
(0.00626958 3.09176 3.09027e-19)
(0.0070189 3.08211 0)
(0.786146 1.82237 -1.51782e-19)
(1.2478 2.50129 3.81976e-19)
(0.768351 1.96239 -1.21427e-18)
(0.0202282 2.98245 -6.90552e-19)
(0.0357309 3.00237 0)
(-0.0338003 2.879 0)
(-0.0104962 2.15476 -7.71845e-21)
(-0.0126246 2.12146 -1.27217e-21)
(0.0206081 1.99808 -2.74637e-21)
(0.27457 1.37388 1.06068e-18)
(0.220643 0.499032 -7.27281e-19)
(0.0633342 1.98237 8.19639e-19)
(0.137188 1.87164 -9.65505e-19)
(0.17813 1.47672 8.99493e-20)
(0.00515864 3.11871 -1.73475e-18)
(0.0111583 3.1193 1.89535e-18)
(-0.00906405 2.98073 8.5976e-19)
(-0.004235 2.97746 -8.17688e-19)
(-0.0214337 2.88091 -8.75654e-19)
(0.00847748 3.0996 -2.30228e-18)
(0.00175102 3.10511 2.31618e-18)
(0.270994 0.67895 0)
(0.23179 0.667384 -1.29924e-18)
(0.0986021 0.221933 5.74935e-19)
(0.344047 0.901668 1.14738e-18)
(0.183774 0.260979 -1.77008e-18)
(1.15585 0.17102 9.0569e-20)
(1.16483 0.306131 0)
(1.14254 0.119297 -3.95827e-20)
(-0.00608749 2.21079 -2.42302e-21)
(-0.00381552 2.2168 0)
(0.0422041 1.96587 0)
(0.337768 1.28062 -3.8274e-19)
(0.363382 1.11045 -8.24429e-19)
(0.196853 0.355554 1.46946e-18)
(1.00587 -0.0108734 0)
(1.00766 -0.00765762 5.48489e-19)
(-0.0336107 1.19243 0)
(-0.0246915 1.03855 0)
(1.00222 0.00348783 1.79288e-21)
(1.00364 0.00941524 1.11892e-18)
(-0.190246 2.51781 -3.5491e-20)
(-0.153763 2.51209 0)
(0.0359887 3.17932 4.69772e-19)
(0.395788 3.49268 0)
(1.13721 0.652099 -9.0522e-20)
(1.01294 0.0130693 -2.13545e-21)
(1.02119 -0.0104661 0)
(1.00168 9.88261e-05 6.0614e-23)
(0.0968951 1.35144 0)
(0.147954 2.58332 0)
(0.0221197 1.30722 0)
(-0.00343355 2.62696 8.9649e-20)
(-0.0246674 2.5753 7.18345e-20)
(1.00348 0.0270873 2.40788e-21)
(1.06153 0.00327179 0)
(1.09374 0.0207504 0)
(-0.125768 2.05938 0)
(-0.0331136 2.56029 0)
(0.0291392 1.19651 0)
(0.285527 1.46476 -1.21502e-19)
(1.01124 -0.00966031 0)
(1.0094 -0.0149484 0)
(1.00233 0.000684861 7.00176e-19)
(1.00547 -0.00485518 -8.23819e-19)
(1.00118 -0.00100915 0)
(0.0294861 1.73554 0)
(0.0105309 1.27353 0)
(-0.0586795 1.55437 0)
(0.018163 1.16361 0)
(0.0371453 1.05864 0)
(0.00824644 1.00938 0)
(1.03417 -0.00659238 0)
(1.02085 0.0157322 -9.63042e-22)
(0.796559 1.26161 2.09324e-19)
(1.0023 0.000250923 -7.00164e-19)
(1.00406 0.00522618 8.16943e-19)
(1.00118 0.00206057 0)
(1.01284 0.0102643 6.95217e-19)
(1.00804 0.00827198 -8.41279e-19)
(1.00861 0.0146751 0)
(-0.0830084 2.57087 0)
(-0.137832 2.54588 7.82948e-20)
(-0.0808494 2.54126 -6.5889e-20)
(1.2141 0.256553 7.17618e-19)
(1.15117 0.0773981 0)
(0.0450007 3.07774 -1.01316e-18)
(0.0657354 2.85353 -7.35706e-20)
(0.142439 3.19385 1.53432e-18)
(0.137077 3.22259 -2.38657e-19)
(0.135937 3.23541 0)
(0.019662 3.13779 2.64207e-19)
(0.0767446 3.1606 1.0006e-18)
(0.0693448 3.18687 -4.97286e-19)
(0.0230337 3.12918 0)
(0.655747 0.304087 0)
(0.576477 0.351348 0)
(1.10736 0.684416 2.33383e-19)
(1.10336 0.814365 1.18553e-19)
(1.16604 0.571544 0)
(1.19541 0.512586 0)
(1.01619 0.0132706 -1.29677e-18)
(1.015 0.01425 -1.53909e-21)
(1.02513 -0.0100554 0)
(1.02317 -0.0119545 0)
(1.00647 0.00260352 0)
(1.01039 0.00364611 0)
(1.0046 0.00184881 0)
(1.0099 0.00610607 0)
(1.00783 0.00602948 0)
(1.00448 0.0045805 0)
(0.086896 1.34797 0)
(0.0786786 1.32161 0)
(0.117567 1.38366 0)
(0.126699 1.39897 0)
(0.145592 2.60736 0)
(0.186677 2.67192 -4.67774e-19)
(0.0991575 2.66486 0)
(0.0880123 2.66668 2.42595e-19)
(0.0399516 2.68423 -2.37983e-19)
(0.027129 1.30738 0)
(-0.00275893 1.23555 0)
(0.0252652 1.32403 0)
(0.0429489 1.27233 0)
(-0.00905492 1.99005 -5.13071e-20)
(-0.028547 2.6042 5.71535e-20)
(-0.0157247 2.66787 9.10275e-20)
(-0.0223125 2.67699 0)
(-0.0337713 2.6086 -1.64863e-19)
(-0.0334789 2.60119 -1.01492e-19)
(0.000576467 1.99111 3.94208e-20)
(-0.0217499 2.41342 -7.66357e-20)
(-0.0223373 2.42963 -1.03256e-19)
(1.01217 0.0350546 1.31479e-18)
(1.00828 0.0168555 3.29061e-21)
(1.00482 0.0413804 -1.32193e-18)
(0.983172 0.0220306 1.67906e-18)
(1.06254 0.00691553 0)
(1.04787 -0.00909665 0)
(1.09078 0.0314769 0)
(1.07201 0.0107545 0)
(1.06952 -0.00110891 0)
(1.13381 0.0723761 0)
(1.10614 0.0384406 0)
(1.1083 0.0260332 0)
(-0.184924 2.51346 -1.23212e-21)
(-0.0944027 2.30366 0)
(-0.187683 2.43639 0)
(-0.0570715 2.57927 4.27607e-20)
(-0.0404562 2.58979 -1.97724e-21)
(0.0692145 1.79146 -3.88885e-20)
(0.0546546 1.65846 3.93369e-20)
(0.0685444 1.40286 0)
(0.0611722 1.39972 0)
(0.0737535 1.38276 0)
(0.0369261 1.21849 0)
(0.0114714 1.07445 0)
(0.376449 1.47955 1.86363e-19)
(0.41431 1.48614 1.16448e-19)
(0.596107 2.45251 -2.47437e-19)
(0.403966 2.54687 7.32133e-19)
(0.355306 2.07318 8.55954e-20)
(1.02089 -0.00826869 0)
(1.01542 -0.00982687 0)
(1.01486 -0.0155757 0)
(1.00746 -0.00123031 0)
(1.0049 -0.000974066 0)
(1.00776 -0.00477531 0)
(1.00922 -0.0037874 0)
(1.01413 -0.0045616 0)
(1.02152 0.015922 1.26988e-18)
(1.01817 0.0157999 -1.6291e-18)
(1.02202 0.0178637 -1.2789e-18)
(1.01977 0.0165358 1.60377e-18)
(0.764186 1.30964 0)
(0.69841 1.36401 1.867e-19)
(0.872485 1.20758 4.38738e-20)
(0.915121 1.162 -5.83745e-20)
(1.15652 2.60801 3.76503e-19)
(0.812722 0.0963603 6.44287e-19)
(1.15191 0.0955727 0)
(1.19429 0.18199 -5.75949e-19)
(1.17867 0.146296 -2.42969e-20)
(1.0059 0.138478 0)
(0.138435 2.96236 5.98608e-19)
(0.115225 2.86828 -1.27849e-18)
(0.0265534 2.37043 8.64584e-19)
(0.0928627 0.00198693 -3.89161e-19)
(0.340629 3.4216 -1.82283e-19)
(0.195032 3.31413 0)
(0.237789 3.35643 2.37393e-19)
(0.247007 3.03548 -1.94604e-18)
(0.341489 3.19447 0)
(0.00739054 3.12063 5.09228e-20)
(0.0180276 3.12945 -5.94948e-19)
(0.0160166 3.12551 8.7568e-19)
(0.0360036 3.13956 0)
(0.0341749 3.1509 0)
(1.2151 2.60794 0)
(0.530123 0.841853 -5.64854e-19)
(1.03384 0.98949 3.98433e-20)
(0.971642 1.06255 0)
(0.817687 0.9617 -1.37162e-19)
(1.05697 0.877341 2.94907e-20)
(0.369106 0.409969 -1.00219e-18)
(0.70074 0.327742 -2.29113e-20)
(0.676768 0.247041 4.61242e-19)
(0.591727 0.387291 3.40436e-20)
(0.509586 0.363893 -1.37075e-18)
(0.671113 0.341499 0)
(0.702568 0.426669 7.82654e-19)
(0.709509 0.425753 0)
(0.629163 0.370136 0)
(0.605426 0.297148 0)
(0.789362 0.616762 4.69038e-19)
(1.21072 0.278597 -5.72635e-20)
(1.20549 0.417148 0)
(1.21701 0.362392 0)
(0.756359 0.192554 6.88178e-19)
(0.835459 0.536391 -4.28281e-19)
(0.740422 0.512599 -7.58332e-19)
(0.937606 0.421634 -8.43198e-19)
(1.01986 0.0145754 8.73883e-19)
(1.01792 0.0141325 -8.78305e-19)
(1.01597 0.0155679 0)
(1.03567 -0.00621781 0)
(1.02947 -0.00872689 -8.24934e-19)
(1.02741 -0.0122807 8.16892e-19)
(1.0251 0.00957721 0)
(1.02378 0.0130746 0)
(1.0114 0.00401803 0)
(1.01431 0.00892348 0)
(1.01507 0.0039018 0)
(1.01418 0.00273411 0)
(0.060544 1.33241 0)
(0.0627101 1.29385 0)
(0.148077 1.34959 -4.50745e-20)
(0.263836 1.46251 5.93539e-20)
(0.153986 1.4328 1.20278e-19)
(0.184512 1.44183 -6.02127e-20)
(0.160432 1.37583 0)
(0.133051 1.58799 -1.23769e-19)
(0.114364 1.55807 0)
(0.354109 2.0273 -1.24412e-19)
(0.349293 2.36041 6.76503e-19)
(0.183878 1.44034 1.0792e-19)
(0.26053 1.37246 8.29768e-22)
(0.197054 1.35666 6.72088e-22)
(0.271467 1.31279 -1.50116e-19)
(0.240889 1.57331 1.61213e-19)
(0.261286 1.61521 1.49188e-19)
(0.0294978 2.27739 -5.35427e-20)
(0.0376075 2.67631 0)
(0.0621982 2.41438 1.89813e-19)
(0.0550315 2.43582 0)
(0.0694077 2.67984 -2.68417e-19)
(0.0500848 2.70543 0)
(0.0200678 1.41199 -3.23173e-20)
(0.026826 1.46223 0)
(0.0304877 1.37878 0)
(0.0172711 1.38492 3.68901e-20)
(-0.00514534 2.65683 -2.11896e-20)
(0.0257224 2.70192 2.76225e-19)
(0.00856155 2.72516 1.93172e-21)
(-0.00740083 1.84167 5.14407e-20)
(-0.0181033 1.67153 -2.3073e-20)
(0.0270639 1.29633 0)
(0.0288819 1.17254 0)
(0.0432813 1.56683 5.37185e-20)
(0.0273323 1.4442 4.86221e-20)
(0.0314793 1.50938 -6.08441e-20)
(0.035918 1.58983 0)
(-0.0584932 2.31668 -6.5356e-20)
(-0.074201 2.54658 2.7544e-20)
(-0.0226456 2.46272 -2.02634e-20)
(-0.0220086 1.85104 -6.23232e-20)
(-0.0421006 2.49299 -2.4989e-20)
(-0.027053 2.44113 1.13379e-19)
(1.02014 0.0204663 -8.69027e-19)
(1.01653 0.025645 8.71412e-19)
(1.01523 0.0162101 0)
(1.01443 0.064807 1.21814e-18)
(0.993958 0.0556123 -1.36757e-18)
(0.955875 0.0433094 1.52808e-18)
(1.01673 0.101305 -1.63611e-19)
(1.04185 -0.00629579 0)
(1.04989 -0.00225718 7.89822e-19)
(1.03811 -0.0102977 -7.90804e-19)
(1.06995 0.0395964 -4.71826e-20)
(1.06342 0.02163 4.06478e-19)
(1.06319 0.0509941 0)
(1.05289 0.0453163 -1.45663e-19)
(1.03278 0.0391275 0)
(1.02631 0.0353857 0)
(1.02773 0.0127146 0)
(1.02446 0.0154881 0)
(1.03899 0.0299988 2.9974e-19)
(1.03928 0.0252938 -6.60595e-19)
(1.05034 0.0322088 -3.18789e-19)
(1.04686 0.0326232 -3.50239e-19)
(1.06747 0.0581705 6.87995e-19)
(1.09262 0.045499 0)
(1.09992 0.0879257 0)
(-0.0704376 2.3293 9.41973e-21)
(-0.0468366 2.23874 1.81983e-21)
(-0.0132734 2.19448 0)
(-0.0878599 2.48916 -9.30225e-21)
(-0.131375 2.48945 -6.33422e-22)
(-0.117049 2.49582 -1.36482e-20)
(-0.0346146 2.61318 8.80891e-20)
(-0.0558217 2.5482 -7.26701e-21)
(-0.0349794 2.51258 3.14161e-20)
(-0.0354932 2.60092 -4.61323e-20)
(-0.0359973 2.60547 6.46584e-22)
(0.11301 1.60187 3.62248e-21)
(0.0493121 1.78662 9.993e-21)
(0.366215 1.41932 -6.93462e-20)
(0.364151 1.36171 8.27111e-20)
(0.645641 1.40942 -1.80589e-19)
(0.512754 1.47382 -1.12578e-19)
(0.564546 1.44723 0)
(0.591593 2.42792 2.21258e-19)
(0.65845 2.41933 3.50245e-19)
(0.410734 2.5228 8.21061e-20)
(0.405474 2.55227 -6.80019e-19)
(0.514649 2.49867 6.48468e-19)
(0.550926 2.46616 0)
(0.488612 2.52098 -5.87344e-19)
(0.248603 2.59754 1.24585e-18)
(0.353557 2.5718 -8.41202e-20)
(0.284743 2.65883 -1.69522e-18)
(0.940905 2.3798 7.76737e-19)
(0.833581 2.38513 0)
(1.01092 0.000381644 2.84403e-20)
(1.01524 -0.00557331 -2.31153e-20)
(1.01766 -0.00366968 -4.22407e-19)
(1.01495 -0.0010696 4.24451e-19)
(1.0123 0.000976374 0)
(0.634329 1.27919 0)
(0.653239 1.17388 0)
(0.754389 1.08112 0)
(0.64431 1.14099 0)
(1.18556 2.6226 5.95739e-20)
(1.07475 2.36675 0)
(0.83858 2.1865 4.41853e-21)
(0.827216 2.4514 0)
(0.922547 2.54059 -4.72569e-19)
(0.958351 2.496 0)
(0.821986 0.147872 0)
(0.792764 0.128416 1.76612e-19)
(0.924994 0.129869 1.02337e-18)
(0.842816 0.124711 -3.84796e-19)
(0.822229 0.0670779 -1.17497e-18)
(1.07217 0.221721 -1.01719e-18)
(0.992437 0.278935 -1.54447e-20)
(0.917051 0.274208 9.5679e-19)
(1.00434 0.206849 8.01733e-19)
(0.951394 0.170948 -1.36475e-18)
(0.918496 0.172967 1.70539e-19)
(0.949308 0.234767 -3.67496e-19)
(0.928318 0.196432 0)
(0.996774 0.170761 -6.73862e-19)
(1.04604 0.172516 0)
(1.0441 0.19915 0)
(1.09942 0.106193 3.23575e-19)
(1.07251 0.161629 -1.36296e-20)
(1.06601 0.224643 -5.18029e-19)
(1.09596 0.191047 0)
(1.02284 0.0436436 6.7482e-19)
(1.04148 0.0548034 8.42354e-19)
(1.03288 0.0413512 -6.69343e-19)
(1.04178 0.0598804 -5.64415e-19)
(1.01643 0.0668815 -8.57444e-19)
(0.991138 0.144975 0)
(1.00037 0.0974068 0)
(0.971731 0.0629495 -5.43702e-19)
(0.924074 0.0829595 2.13789e-19)
(1.03877 0.0958565 7.81532e-19)
(1.06873 0.108557 -9.31584e-19)
(1.07361 0.141312 8.31306e-19)
(1.03279 0.133083 0)
(1.07383 0.0977966 0)
(1.05776 0.0812805 -3.78178e-19)
(1.04563 0.088742 -6.40699e-19)
(0.580128 1.07957 1.64013e-19)
(0.611577 1.41305 -6.67289e-20)
(1.15615 2.74108 -2.60244e-19)
(1.22285 3.08224 8.07586e-21)
(1.2485 2.72226 -2.03444e-19)
(1.27861 2.70629 1.23907e-21)
(1.20665 2.34568 -1.00657e-20)
(1.21003 2.9859 -1.2049e-19)
(1.22947 2.95083 2.7776e-19)
(1.21387 3.23598 -1.32743e-19)
(1.37511 2.96744 1.83598e-19)
(1.3657 2.88563 0)
(0.536884 0.849299 -5.33879e-20)
(0.138914 1.26035 5.97856e-19)
(0.529368 0.466969 6.47493e-19)
(0.364104 0.217934 7.15539e-19)
(0.530426 0.394793 7.73382e-19)
(0.541052 0.483742 -1.27292e-18)
(0.544212 0.490471 1.04e-18)
(0.497564 0.415101 -3.90271e-19)
(0.424755 0.352033 8.86555e-19)
(0.759839 0.25002 1.19737e-18)
(0.721435 0.286709 0)
(0.7144 0.217156 9.86712e-21)
(0.723436 0.513946 4.12181e-19)
(0.694742 0.482037 -1.5021e-18)
(0.613523 0.482225 1.65154e-20)
(0.624863 0.462495 0)
(0.666054 0.736382 4.32219e-19)
(0.815637 0.771092 4.51695e-19)
(0.743059 0.85397 -5.27217e-19)
(0.857313 0.803029 -1.83225e-19)
(0.891007 0.846496 -4.82466e-20)
(0.899417 0.84812 4.93908e-20)
(0.829269 0.642516 -7.78741e-19)
(0.906655 0.698687 1.70199e-19)
(0.963924 0.712988 0)
(0.954397 0.688901 -2.36617e-19)
(1.01744 0.319467 2.45901e-19)
(1.12682 0.290264 3.50973e-19)
(1.05746 0.259701 4.15775e-19)
(1.00069 0.354074 -4.91714e-19)
(1.03949 0.420847 0)
(1.09189 0.406684 0)
(0.904774 0.349538 4.98662e-21)
(0.840163 0.28295 0)
(0.866519 0.275965 4.48753e-19)
(0.900996 0.280611 -5.9519e-21)
(0.92935 0.424778 2.35211e-18)
(0.885088 0.485795 6.07604e-19)
(0.890826 0.450168 -6.40681e-19)
(0.816725 0.434667 -6.861e-19)
(0.799244 0.430756 4.09704e-19)
(0.770009 0.41874 -4.02795e-19)
(1.02708 -0.000585229 7.04071e-19)
(1.01999 -0.000306517 0)
(1.0185 0.000628442 4.58793e-19)
(1.02164 -0.00194641 -3.37123e-21)
(1.02229 0.00398187 5.0486e-19)
(1.02046 0.0109082 -1.05728e-18)
(1.02141 0.0103133 0)
(1.02075 0.0106095 -2.20174e-19)
(1.016 0.00750868 5.52296e-19)
(1.01678 0.0102603 -2.75535e-19)
(1.01748 0.00959207 2.02988e-19)
(0.0314104 1.31093 0)
(0.0401518 1.348 0)
(0.0459891 1.31207 0)
(0.0508946 1.27516 0)
(0.0695602 1.36667 6.85661e-20)
(0.0766791 1.33977 -1.38545e-20)
(0.112342 1.49662 -4.33773e-20)
(0.0883897 1.33826 2.33883e-20)
(0.032399 1.44585 -7.48988e-20)
(0.0363226 1.43625 5.81128e-20)
(0.0633887 1.35011 -6.96365e-21)
(0.0573295 1.35178 4.36431e-20)
(0.0527269 1.33213 -5.16075e-21)
(0.0414042 1.35183 8.24598e-21)
(0.10476 2.38661 -2.09975e-19)
(0.0944672 2.4315 0)
(0.171444 2.06296 1.30175e-19)
(0.106104 1.71031 6.43032e-20)
(0.231871 2.05372 -1.05623e-19)
(0.209009 2.45029 0)
(0.267993 2.40163 -6.57315e-19)
(0.306626 2.39966 4.66362e-19)
(0.233311 2.01197 -3.94871e-19)
(0.153736 2.17881 1.90183e-19)
(0.14546 2.29824 0)
(0.0104495 1.88229 -8.45556e-20)
(-0.014164 2.40996 -1.52871e-19)
(-0.00295565 2.16492 0)
(0.00950994 2.46924 -1.49771e-20)
(0.020609 2.3171 5.36604e-20)
(0.0145446 1.39397 5.64542e-21)
(0.0168266 1.38244 -7.89697e-20)
(0.0254727 1.39727 1.56241e-20)
(0.0102988 1.39509 3.32698e-20)
(0.0199004 1.41569 0)
(0.0293001 1.37783 0)
(0.0723541 1.23303 2.36651e-20)
(0.0871506 1.37695 -1.03585e-20)
(0.0502401 1.37268 0)
(0.0426249 1.26958 1.47349e-20)
(0.0219201 1.10315 -2.87518e-20)
(1.04004 0.0109036 0)
(1.046 0.00710677 -7.40917e-20)
(1.03845 0.0200195 -5.32537e-19)
(1.04755 0.0190906 0)
(1.05143 0.0192404 0)
(1.03647 0.0107268 -6.53563e-21)
(1.03112 0.0105606 8.54969e-19)
(1.03199 0.0155244 1.03667e-18)
(1.02594 0.0195203 0)
(1.02332 0.0199713 0)
(1.03513 0.023498 5.31712e-19)
(1.02638 0.0249293 0)
(1.02483 0.0249007 0)
(-0.0410855 2.02529 0)
(0.0342977 1.77873 5.81817e-21)
(0.0134424 1.84651 6.88137e-21)
(0.0791132 1.39212 0)
(0.0475339 1.62844 2.26184e-20)
(0.0808383 1.51806 -5.38411e-21)
(0.0907823 1.44869 0)
(0.396616 1.681 0)
(0.365594 1.2903 -1.51779e-19)
(0.307258 1.34027 0)
(0.422044 1.29087 2.4776e-20)
(0.465682 1.4472 0)
(0.446633 1.39166 -2.46035e-20)
(1.03421 2.68773 -1.66669e-20)
(0.963035 2.40992 -1.03454e-18)
(0.912053 2.18684 1.13143e-18)
(0.846773 2.37685 2.55241e-19)
(0.846306 2.50011 0)
(0.916572 2.49495 0)
(0.924256 2.37341 0)
(0.901852 2.36037 -9.92597e-19)
(0.692352 2.47056 -4.35458e-19)
(0.802188 2.46131 -1.06296e-19)
(0.813349 2.43359 8.1151e-20)
(0.693417 2.39405 0)
(0.797119 2.38952 0)
(0.756022 2.40228 -3.81141e-19)
(0.769666 2.49141 0)
(0.612121 1.09736 0)
(0.481907 0.928995 -5.50361e-19)
(0.550093 0.964556 -3.49653e-20)
(0.520578 1.05702 0)
(0.520016 1.00633 8.26476e-19)
(0.766986 0.880382 -1.51497e-19)
(0.778406 1.01198 0)
(0.751594 0.970053 2.26112e-19)
(0.639802 1.03483 0)
(0.644387 0.944481 0)
(1.16429 2.7619 -2.64319e-19)
(1.1418 2.82568 -1.21704e-19)
(0.931572 2.3462 1.42115e-19)
(0.899392 2.32514 -8.53328e-20)
(1.12923 2.73464 0)
(1.08279 2.70471 1.16318e-19)
(1.08899 2.48671 -3.45611e-19)
(0.984179 2.23363 -3.04476e-20)
(0.500461 1.36015 0)
(0.512828 1.07775 -1.44705e-19)
(0.562869 1.16235 0)
(0.860795 0.212221 0)
(0.800185 0.166747 0)
(0.752693 0.142263 0)
(0.855337 0.219735 -7.06356e-19)
(0.776795 0.212388 4.13502e-19)
(0.93691 0.0696116 -4.41614e-19)
(0.950303 0.114119 0)
(0.928463 0.121797 1.90028e-19)
(0.870401 0.0973101 7.61394e-19)
(0.848996 0.0575936 -4.76365e-19)
(1.16131 3.36161 -6.99721e-19)
(1.20883 3.28088 0)
(1.15989 3.38965 -1.44952e-18)
(0.647667 3.55052 1.23015e-18)
(0.872332 3.11809 4.78719e-20)
(0.510949 0.854428 6.36057e-19)
(0.428823 0.847432 0)
(0.339363 0.501108 -1.60693e-19)
(0.444909 0.685499 -9.15997e-19)
(0.532207 0.473404 -2.23246e-19)
(0.506868 0.525033 2.52462e-19)
(0.655955 0.537518 5.54373e-19)
(0.683377 0.55411 0)
(0.635689 0.620485 0)
(0.593717 0.557532 0)
(0.966341 0.597295 1.24055e-19)
(0.887046 0.53519 -5.91212e-19)
(0.910654 0.567892 4.58356e-19)
(0.946153 0.503092 -4.59346e-19)
(1.04927 0.479313 0)
(1.05882 0.567292 -1.19153e-19)
(0.839959 0.386033 -9.35676e-19)
(0.843974 0.371027 1.49746e-18)
(0.791686 0.385145 7.29804e-19)
(0.788743 0.352891 -7.45239e-19)
(0.839382 0.307555 -5.82921e-19)
(0.79353 0.306679 7.16269e-19)
(1.02678 0.00537405 -5.38041e-19)
(1.0265 0.00561063 1.09616e-18)
(1.02911 -0.00062829 6.83157e-19)
(1.0333 0.000512018 -8.2258e-19)
(1.03285 0.00804018 0)
(1.03003 0.0086836 -1.33818e-18)
(0.0571254 1.64328 3.60228e-20)
(0.0401508 1.56763 0)
(0.0845792 1.696 2.26828e-19)
(0.0943965 1.67613 -2.02832e-19)
(0.0848085 1.51266 8.13986e-20)
(0.0795729 1.49501 0)
(-0.00167551 1.703 0)
(0.000322818 1.52671 -1.66351e-20)
(0.0341605 1.46456 1.49892e-20)
(0.0293913 1.61021 1.34107e-20)
(0.0015881 1.89992 -3.36145e-20)
(-0.0303308 1.93539 -6.15677e-20)
(0.499134 1.3749 -3.48178e-19)
(0.494562 1.38026 -3.9767e-19)
(0.445429 1.28803 -8.65017e-20)
(0.438958 1.29483 1.17878e-20)
(0.626143 1.29173 0)
(0.542731 1.37891 4.4932e-20)
(0.560627 1.38741 -4.37548e-20)
(0.454022 1.27552 8.33068e-20)
(0.51141 1.22967 0)
(0.565134 1.19822 0)
(0.659389 2.43035 6.39747e-19)
(0.670714 2.46672 1.34714e-18)
(0.717198 2.47976 -9.2725e-19)
(0.617087 2.45807 -2.15765e-19)
(0.563874 2.54861 3.04555e-19)
(0.512599 2.52181 -8.05411e-19)
(0.975217 2.37768 -6.33649e-19)
(1.01211 2.39247 0)
(0.921147 2.16571 -7.29912e-19)
(1.05273 2.68408 0)
(1.05491 2.67073 0)
(0.612446 2.2785 -1.3965e-19)
(1.04161 3.16463 1.09905e-19)
(0.912781 3.03505 -1.39279e-20)
(0.282724 0.919494 0)
(0.323523 0.78147 -3.33992e-19)
(0.479946 0.735095 -1.33525e-18)
(0.391523 2.02636 0)
(0.468214 2.78712 -3.33266e-20)
(0.424434 2.55125 0)
(0.678642 0.683076 -9.17667e-19)
(0.760774 0.681732 1.25939e-18)
(0.780515 0.624136 7.95386e-19)
(0.660216 0.645297 1.1859e-19)
(0.716672 0.599004 -4.93124e-19)
(1.00355 2.7683 -8.3567e-20)
(1.04063 2.82448 -2.05476e-19)
(0.640631 2.15462 7.06237e-19)
(0.596112 1.72073 -5.01467e-19)
(0.699233 1.9103 -4.54267e-19)
(0.98915 2.45113 -1.19244e-19)
(0.994134 2.44482 3.41673e-19)
(0.660585 1.85059 3.10956e-20)
(0.450575 1.33816 6.29845e-19)
)
;

boundaryField
{
    wall-4
    {
        type            noSlip;
    }
    velocity-inlet-5
    {
        type            fixedValue;
        value           uniform (1 0 0);
    }
    velocity-inlet-6
    {
        type            fixedValue;
        value           uniform (0 3 0);
    }
    pressure-outlet-7
    {
        type            zeroGradient;
    }
    wall-8
    {
        type            noSlip;
    }
    frontAndBackPlanes
    {
        type            empty;
    }
}


// ************************************************************************* //
