/*--------------------------------*- C++ -*----------------------------------*\
| =========                 |                                                 |
| \\      /  F ield         | OpenFOAM: The Open Source CFD Toolbox           |
|  \\    /   O peration     | Version:  2412                                  |
|   \\  /    A nd           | Website:  www.openfoam.com                      |
|    \\/     M anipulation  |                                                 |
\*---------------------------------------------------------------------------*/
FoamFile
{
    version     2.0;
    format      ascii;
    arch        "LSB;label=32;scalar=64";
    class       volScalarField;
    location    "4";
    object      p;
}
// * * * * * * * * * * * * * * * * * * * * * * * * * * * * * * * * * * * * * //

dimensions      [0 2 -2 0 0 0 0];

internalField   nonuniform List<scalar> 
38
(
-0.720399
-0.47195
-0.581548
-0.529108
-0.838119
-0.340869
-0.460746
-0.742192
-0.668624
-0.9415
-0.190615
-0.244551
-0.388441
-0.0831021
-0.272689
-0.0729149
-0.17424
-0.0659681
0.0470986
-0.227287
-0.293056
-0.372206
0.0645506
0.202876
0.166241
0.100895
-0.134349
-0.0302532
0.372379
0.352598
0.317077
0.152786
0.03719
-0.0498199
-0.0915023
0.0999251
0.187011
0.211807
)
;

boundaryField
{
    wall-4
    {
        type            zeroGradient;
    }
    velocity-inlet-5
    {
        type            zeroGradient;
    }
    velocity-inlet-6
    {
        type            zeroGradient;
    }
    pressure-outlet-7
    {
        type            fixedValue;
        value           nonuniform List<scalar> 0();
    }
    wall-8
    {
        type            zeroGradient;
    }
    frontAndBackPlanes
    {
        type            empty;
    }
    procBoundary21to6
    {
        type            processor;
        value           nonuniform List<scalar> 2(-0.260896 -0.0598598);
    }
    procBoundary21to18
    {
        type            processor;
        value           uniform 0.470649;
    }
    procBoundary21to19
    {
        type            processor;
        value           nonuniform List<scalar> 4(0.14607 0.249016 0.423571 0.423571);
    }
    procBoundary21to22
    {
        type            processor;
        value           nonuniform List<scalar> 3(-0.901284 -0.333105 0.0244562);
    }
    procBoundary21to23
    {
        type            processor;
        value           nonuniform List<scalar> 3(0.262628 0.327468 0.250962);
    }
}


// ************************************************************************* //
