/*--------------------------------*- C++ -*----------------------------------*\
| =========                 |                                                 |
| \\      /  F ield         | OpenFOAM: The Open Source CFD Toolbox           |
|  \\    /   O peration     | Version:  2412                                  |
|   \\  /    A nd           | Website:  www.openfoam.com                      |
|    \\/     M anipulation  |                                                 |
\*---------------------------------------------------------------------------*/
FoamFile
{
    version     2.0;
    format      ascii;
    arch        "LSB;label=32;scalar=64";
    class       surfaceScalarField;
    location    "4";
    object      phi;
}
// * * * * * * * * * * * * * * * * * * * * * * * * * * * * * * * * * * * * * //

dimensions      [0 3 -1 0 0 0 0];

oriented        oriented;

internalField   nonuniform List<scalar> 
48
(
-5.77561
5.77561
-5.42343
-0.352176
-5.42343
6.13329
-0.357679
6.13329
-4.98855
-0.434885
-6.38697
-0.0468794
6.38697
-0.253687
10.0219
-10.3741
-8.59856
-2.66312
-8.64544
8.35675
1.66519
7.99907
-6.73921
6.07339
-8.73651
-5.22539
7.88479
0.114285
-7.6311
-1.01434
-6.81723
8.48241
2.82598
-5.53114
2.61867
-8.14981
6.11784
-7.13218
5.59079
6.35319
-1.69123
-6.12648
6.46901
2.01341
-6.58329
-0.548893
-6.67537
-8.3666
)
;

boundaryField
{
    wall-4
    {
        type            calculated;
        value           uniform 0;
    }
    velocity-inlet-5
    {
        type            calculated;
        value           nonuniform List<scalar> 0();
    }
    velocity-inlet-6
    {
        type            calculated;
        value           nonuniform List<scalar> 0();
    }
    pressure-outlet-7
    {
        type            calculated;
        value           nonuniform List<scalar> 0();
    }
    wall-8
    {
        type            calculated;
        value           nonuniform List<scalar> 0();
    }
    frontAndBackPlanes
    {
        type            empty;
    }
    procBoundary21to6
    {
        type            processor;
        value           nonuniform List<scalar> 2(-4.98855 -7.17409);
    }
    procBoundary21to18
    {
        type            processor;
        value           uniform -2.00076;
    }
    procBoundary21to19
    {
        type            processor;
        value           nonuniform List<scalar> 4(-3.63491 -9.6432 -3.59002 -3.52722);
    }
    procBoundary21to22
    {
        type            processor;
        value           nonuniform List<scalar> 3(6.43385 11.2617 11.2988);
    }
    procBoundary21to23
    {
        type            processor;
        value           nonuniform List<scalar> 3(0.305755 7.28201 -2.02333);
    }
}


// ************************************************************************* //
