/*--------------------------------*- C++ -*----------------------------------*\
| =========                 |                                                 |
| \\      /  F ield         | OpenFOAM: The Open Source CFD Toolbox           |
|  \\    /   O peration     | Version:  2412                                  |
|   \\  /    A nd           | Website:  www.openfoam.com                      |
|    \\/     M anipulation  |                                                 |
\*---------------------------------------------------------------------------*/
FoamFile
{
    version     2.0;
    format      ascii;
    arch        "LSB;label=32;scalar=64";
    class       volVectorField;
    location    "7";
    object      U;
}
// * * * * * * * * * * * * * * * * * * * * * * * * * * * * * * * * * * * * * //

dimensions      [0 1 -1 0 0 0 0];

internalField   nonuniform List<vector> 
38
(
(0.95064 0.00706442 0)
(1.06581 0.00246394 0)
(1.0046 0.0071337 0)
(0.961253 -0.00263278 0)
(1.18145 0.0810455 -1.99425e-21)
(1.16694 0.0365053 0)
(1.0935 0.0396172 0)
(1.01216 0.00857168 0)
(1.04134 0.0240595 0)
(1.00771 0.0124117 0)
(0.985751 0.00684705 0)
(1.25647 0.170666 -4.76985e-20)
(1.24466 0.121336 1.15922e-19)
(1.06796 0.0278205 0)
(1.15553 0.247542 -1.27069e-20)
(1.09998 0.0850386 0)
(1.05724 0.0267523 0)
(1.04229 0.00111948 0)
(1.06048 0.0129798 0)
(1.08505 0.069921 0)
(1.06746 0.0420595 0)
(1.09039 0.0340086 0)
(1.10503 0.0889824 0)
(1.13991 0.163161 1.36437e-20)
(1.1412 0.14599 1.46845e-21)
(1.02028 0.030676 -1.55556e-20)
(1.02481 0.0159798 1.37585e-19)
(1.0011 0.197135 -2.7798e-19)
(0.914219 0.283211 -1.26328e-20)
(0.920424 0.19322 3.07386e-19)
(0.971383 0.135273 0)
(0.968572 0.176766 0)
(1.04812 0.09933 9.27153e-20)
(0.994823 0.128764 -1.37826e-20)
(0.996965 0.194126 -4.77031e-20)
(1.058 0.177425 0)
(0.942286 0.294425 7.30718e-20)
(0.981188 0.23808 1.13722e-19)
)
;

boundaryField
{
    wall-4
    {
        type            noSlip;
    }
    velocity-inlet-5
    {
        type            fixedValue;
        value           nonuniform List<vector> 0();
    }
    velocity-inlet-6
    {
        type            fixedValue;
        value           nonuniform List<vector> 0();
    }
    pressure-outlet-7
    {
        type            zeroGradient;
    }
    wall-8
    {
        type            noSlip;
    }
    frontAndBackPlanes
    {
        type            empty;
    }
    procBoundary9to0
    {
        type            processor;
        value           nonuniform List<vector> 2((0.98582 0.00925989 0) (1.04217 0.00328157 0));
    }
    procBoundary9to6
    {
        type            processor;
        value           nonuniform List<vector> 3((1.25423 0.307718 0) (1.15803 0.261739 -4.75941e-20) (1.07167 0.282681 2.19594e-20));
    }
    procBoundary9to8
    {
        type            processor;
        value           uniform (0.933135 0.328767 1.60797e-19);
    }
    procBoundary9to10
    {
        type            processor;
        value           nonuniform List<vector> 3((0.852095 0.262837 4.05177e-19) (0.906286 0.21448 1.44635e-19) (0.967129 0.132836 2.64611e-19));
    }
    procBoundary9to11
    {
        type            processor;
        value           nonuniform List<vector> 6((1.03245 0.0941 0) (1.03836 0.0423789 0) (1.00169 0.0294674 8.93269e-20) (1.00016 0.0260406 0) (0.997956 0.107694 -1.93252e-19) (1.00657 0.118506 8.93902e-20));
    }
}


// ************************************************************************* //
