/*--------------------------------*- C++ -*----------------------------------*\
| =========                 |                                                 |
| \\      /  F ield         | OpenFOAM: The Open Source CFD Toolbox           |
|  \\    /   O peration     | Version:  2412                                  |
|   \\  /    A nd           | Website:  www.openfoam.com                      |
|    \\/     M anipulation  |                                                 |
\*---------------------------------------------------------------------------*/
FoamFile
{
    version     2.0;
    format      ascii;
    arch        "LSB;label=32;scalar=64";
    class       volVectorField;
    location    "3";
    object      U;
}
// * * * * * * * * * * * * * * * * * * * * * * * * * * * * * * * * * * * * * //

dimensions      [0 1 -1 0 0 0 0];

internalField   nonuniform List<vector> 
38
(
(1.31832 0.673578 0)
(1.19717 1.12503 0)
(1.23636 0.92422 0)
(1.28066 0.84942 -2.45256e-19)
(1.25168 0.708522 0)
(1.32163 0.468406 5.42637e-20)
(1.26635 0.504411 7.99275e-20)
(1.30734 0.348157 7.73635e-20)
(1.27439 0.31332 0)
(1.06605 0.691156 -7.56736e-20)
(1.04595 0.708852 1.92766e-19)
(1.12335 0.848154 -2.13519e-19)
(1.09537 0.580259 0)
(1.16903 0.520783 0)
(1.07268 1.15467 3.73918e-20)
(0.943173 1.23056 0)
(0.721083 1.09166 -1.5867e-19)
(0.967051 0.995923 2.86709e-20)
(0.649617 0.660209 3.35032e-19)
(1.17433 0.294395 -4.7654e-20)
(1.17539 0.387269 0)
(1.17502 0.375082 0)
(0.665126 0.876682 4.4072e-19)
(0.676975 0.890873 -1.67477e-19)
(0.816719 0.913758 -5.13251e-20)
(0.808065 0.936457 5.18097e-20)
(0.770092 0.607659 -5.74135e-19)
(0.785726 0.714606 1.56145e-19)
(0.882092 0.777133 0)
(0.855557 0.732757 -1.94311e-19)
(1.06391 0.290564 2.45792e-19)
(0.993413 0.390985 0)
(0.514146 0.449441 2.82776e-19)
(0.403128 0.558651 2.98326e-19)
(0.596134 0.70828 8.87273e-19)
(0.647892 0.647644 -8.37155e-19)
(0.487927 0.496172 -7.09376e-20)
(0.605049 0.480736 -2.87339e-19)
)
;

boundaryField
{
    wall-4
    {
        type            noSlip;
    }
    velocity-inlet-5
    {
        type            fixedValue;
        value           nonuniform List<vector> 0();
    }
    velocity-inlet-6
    {
        type            fixedValue;
        value           nonuniform List<vector> 0();
    }
    pressure-outlet-7
    {
        type            zeroGradient;
    }
    wall-8
    {
        type            noSlip;
    }
    frontAndBackPlanes
    {
        type            empty;
    }
    procBoundary6to7
    {
        type            processor;
        value           nonuniform List<vector> 2((0.609253 0.456482 0) (0.574316 0.373612 0));
    }
    procBoundary6to8
    {
        type            processor;
        value           nonuniform List<vector> 5((1.0551 0.546579 -9.52542e-20) (0.706163 0.51398 -7.5183e-19) (0.803157 0.562702 3.68189e-19) (0.896617 0.610148 -5.19521e-19) (0.995967 0.38466 0));
    }
    procBoundary6to9
    {
        type            processor;
        value           nonuniform List<vector> 3((1.28925 0.140835 3.92174e-21) (1.1739 0.272549 5.14296e-19) (1.02409 0.240469 2.92992e-19));
    }
    procBoundary6to19
    {
        type            processor;
        value           nonuniform List<vector> 4((0.664241 1.12597 -6.06733e-20) (0.365954 0.819312 3.05289e-19) (0.551386 0.89908 5.02613e-19) (0.170451 0.455785 3.56205e-19));
    }
    procBoundary6to21
    {
        type            processor;
        value           nonuniform List<vector> 2((1.26402 1.06731 3.27866e-19) (0.907233 1.45651 -1.06803e-19));
    }
}


// ************************************************************************* //
