/*--------------------------------*- C++ -*----------------------------------*\
| =========                 |                                                 |
| \\      /  F ield         | OpenFOAM: The Open Source CFD Toolbox           |
|  \\    /   O peration     | Version:  2412                                  |
|   \\  /    A nd           | Website:  www.openfoam.com                      |
|    \\/     M anipulation  |                                                 |
\*---------------------------------------------------------------------------*/
FoamFile
{
    version     2.0;
    format      ascii;
    arch        "LSB;label=32;scalar=64";
    class       volVectorField;
    location    "1";
    object      U;
}
// * * * * * * * * * * * * * * * * * * * * * * * * * * * * * * * * * * * * * //

dimensions      [0 1 -1 0 0 0 0];

internalField   nonuniform List<vector> 
38
(
(0.688645 0.19623 0)
(0.980649 0.033421 0)
(0.987617 -0.00435704 0)
(0.970092 -0.00182709 0)
(0.895176 -0.0157925 0)
(1.01693 0.0303507 0)
(0.951018 0.0739779 -8.10281e-18)
(1.02275 0.114951 6.025e-18)
(0.974622 -0.00467892 0)
(0.984762 0.00359724 0)
(0.897648 0.00863912 0)
(0.969489 -0.00788267 0)
(0.974007 0.00425458 0)
(0.963203 0.0184947 0)
(0.935798 -0.00142655 0)
(0.987817 -0.0104312 0)
(0.98652 -0.0242674 0)
(0.985953 0.00191688 0)
(0.967726 0.00995938 0)
(0.986807 -0.0111376 0)
(0.978366 -0.00381206 0)
(0.954929 -0.00292029 0)
(0.979462 -0.0136254 0)
(0.993049 0.013981 0)
(0.971908 0.00841171 0)
(1.02837 -0.0153659 -2.70248e-21)
(0.98873 -0.0595596 -3.67776e-20)
(0.991342 -0.031249 3.39261e-18)
(1.00547 -0.0369336 -4.36269e-18)
(1.01815 0.0111507 -3.31146e-18)
(0.978177 0.0221939 4.33176e-18)
(0.991072 0.0468771 -2.34843e-18)
(0.992435 -0.0673199 2.17393e-18)
(0.986342 0.0510016 0)
(0.969537 0.00847748 0)
(0.986111 0.00156148 0)
(1.00887 -0.00851185 0)
(0.959582 0.0783587 0)
)
;

boundaryField
{
    wall-4
    {
        type            noSlip;
    }
    velocity-inlet-5
    {
        type            fixedValue;
        value           uniform (1 0 0);
    }
    velocity-inlet-6
    {
        type            fixedValue;
        value           nonuniform List<vector> 0();
    }
    pressure-outlet-7
    {
        type            zeroGradient;
    }
    wall-8
    {
        type            noSlip;
    }
    frontAndBackPlanes
    {
        type            empty;
    }
    procBoundary3to0
    {
        type            processor;
        value           nonuniform List<vector> 2((0.971441 -0.0117935 2.73429e-18) (0.975038 0.0349955 0));
    }
    procBoundary3to4
    {
        type            processor;
        value           nonuniform List<vector> 3((0.911659 -0.0180345 -3.17529e-18) (1.0567 -0.0171659 5.13327e-20) (0.950224 -0.00185293 0));
    }
    procBoundary3to5
    {
        type            processor;
        value           nonuniform List<vector> 7((0.99519 0.0292528 0) (0.98112 0.00156823 4.49154e-18) (1.03599 -0.0128214 -2.11727e-20) (0.995406 0.0671594 0) (0.958919 -0.00127218 0) (0.992064 -0.00294484 -2.35721e-18) (1.02064 0.0816501 0));
    }
    procBoundary3to11
    {
        type            processor;
        value           nonuniform List<vector> 2((0.958477 0.00349544 0) (0.988342 -0.0254926 3.13996e-18));
    }
}


// ************************************************************************* //
