/*--------------------------------*- C++ -*----------------------------------*\
| =========                 |                                                 |
| \\      /  F ield         | OpenFOAM: The Open Source CFD Toolbox           |
|  \\    /   O peration     | Version:  2412                                  |
|   \\  /    A nd           | Website:  www.openfoam.com                      |
|    \\/     M anipulation  |                                                 |
\*---------------------------------------------------------------------------*/
FoamFile
{
    version     2.0;
    format      ascii;
    arch        "LSB;label=32;scalar=64";
    class       volVectorField;
    location    "3";
    object      U;
}
// * * * * * * * * * * * * * * * * * * * * * * * * * * * * * * * * * * * * * //

dimensions      [0 1 -1 0 0 0 0];

internalField   nonuniform List<vector> 
38
(
(0.911632 0.0569739 0)
(0.959589 0.0448137 0)
(0.981003 0.014582 0)
(0.938709 0.00702951 0)
(1.00054 -0.0051512 0)
(0.979661 0.0323454 0)
(0.996521 0.0281363 -2.37575e-18)
(1.0001 0.0428857 1.7993e-18)
(0.942414 -0.0093176 0)
(0.994582 0.00263743 0)
(0.997011 0.00234681 0)
(0.951024 -0.0141198 0)
(0.980919 0.00113385 0)
(0.959164 0.0169791 0)
(0.941484 -0.00282455 0)
(0.963389 -0.0144792 0)
(0.977161 -0.0100081 0)
(0.971808 -0.00791374 0)
(0.948119 0.0077956 0)
(0.987299 -0.0182027 0)
(0.98407 -0.000817314 0)
(0.956453 -0.0129229 0)
(0.978244 0.00440921 0)
(0.983112 0.00483059 0)
(0.954574 0.0124914 0)
(1.01746 -0.0146351 -3.92058e-21)
(1.0064 -0.00369405 -4.92424e-21)
(1.00672 -0.003442 1.00268e-18)
(1.01703 0.0129315 -1.25789e-18)
(1.01467 -0.0168348 -9.7374e-19)
(1.00752 -0.00990551 1.25433e-18)
(1.01041 0.00472004 -6.85583e-19)
(0.999774 0.0292678 6.54494e-19)
(1.0013 0.0294405 0)
(1.00854 0.0198243 0)
(0.995637 0.0198218 0)
(0.9974 0.00917098 0)
(0.996905 0.0156657 0)
)
;

boundaryField
{
    wall-4
    {
        type            noSlip;
    }
    velocity-inlet-5
    {
        type            fixedValue;
        value           uniform (1 0 0);
    }
    velocity-inlet-6
    {
        type            fixedValue;
        value           nonuniform List<vector> 0();
    }
    pressure-outlet-7
    {
        type            zeroGradient;
    }
    wall-8
    {
        type            noSlip;
    }
    frontAndBackPlanes
    {
        type            empty;
    }
    procBoundary3to0
    {
        type            processor;
        value           nonuniform List<vector> 2((0.998073 0.0049027 7.80333e-19) (1.00782 0.0115448 0));
    }
    procBoundary3to4
    {
        type            processor;
        value           nonuniform List<vector> 3((0.98006 0.0119212 -9.27902e-19) (1.0158 0.0111863 1.18786e-20) (0.986579 0.00114902 0));
    }
    procBoundary3to5
    {
        type            processor;
        value           nonuniform List<vector> 7((0.995046 0.017883 0) (1.01557 -0.00909058 1.30992e-18) (1.01181 -0.0140923 -4.49482e-21) (1.01115 0.0282847 0) (0.997009 -0.00625939 0) (1.0088 0.0269147 -6.77925e-19) (1.00978 0.0237993 0));
    }
    procBoundary3to11
    {
        type            processor;
        value           nonuniform List<vector> 2((0.928705 0.0060935 0) (0.996598 -0.00082684 9.86481e-19));
    }
}


// ************************************************************************* //
