/*--------------------------------*- C++ -*----------------------------------*\
| =========                 |                                                 |
| \\      /  F ield         | OpenFOAM: The Open Source CFD Toolbox           |
|  \\    /   O peration     | Version:  2412                                  |
|   \\  /    A nd           | Website:  www.openfoam.com                      |
|    \\/     M anipulation  |                                                 |
\*---------------------------------------------------------------------------*/
FoamFile
{
    version     2.0;
    format      ascii;
    arch        "LSB;label=32;scalar=64";
    class       surfaceScalarField;
    location    "6";
    object      phi;
}
// * * * * * * * * * * * * * * * * * * * * * * * * * * * * * * * * * * * * * //

dimensions      [0 3 -1 0 0 0 0];

oriented        oriented;

internalField   nonuniform List<scalar> 
50
(
-5.76406
5.80677
-3.40395
-2.3601
3.33342
0.942617
3.84395
1.96282
3.84707
3.05048
-3.03808
-0.0124004
-3.1149
6.16538
0.735844
-5.475
-4.53239
3.81389
-3.34101
-0.520505
3.35966
0.487412
-3.04671
6.10811
-3.0614
-4.99193
2.59024
3.57514
4.55307
-4.82212
2.45438
2.36774
-1.24699
3.05732
3.69758
-2.45059
4.27528
-2.0504
4.50478
-1.89578
6.40057
1.81222
-3.708
-3.17972
-3.70022
-1.34026
3.21281
-3.24749
6.12436
3.06296
)
;

boundaryField
{
    wall-4
    {
        type            calculated;
        value           nonuniform List<scalar> 0();
    }
    velocity-inlet-5
    {
        type            calculated;
        value           nonuniform List<scalar> 0();
    }
    velocity-inlet-6
    {
        type            calculated;
        value           nonuniform List<scalar> 0();
    }
    pressure-outlet-7
    {
        type            calculated;
        value           nonuniform List<scalar> 0();
    }
    wall-8
    {
        type            calculated;
        value           nonuniform List<scalar> 0();
    }
    frontAndBackPlanes
    {
        type            empty;
    }
    procBoundary5to0
    {
        type            processor;
        value           nonuniform List<scalar> 4(2.22488 6.30481 0.276208 -0.184529);
    }
    procBoundary5to3
    {
        type            processor;
        value           nonuniform List<scalar> 7(-0.0705327 -0.00312529 -0.0427149 0.0186473 1.94522 3.86152 3.05079);
    }
    procBoundary5to4
    {
        type            processor;
        value           nonuniform List<scalar> 6(-4.27604 -3.77392 -3.79654 -3.82629 0.116313 -1.82469);
    }
}


// ************************************************************************* //
