/*--------------------------------*- C++ -*----------------------------------*\
| =========                 |                                                 |
| \\      /  F ield         | OpenFOAM: The Open Source CFD Toolbox           |
|  \\    /   O peration     | Version:  2412                                  |
|   \\  /    A nd           | Website:  www.openfoam.com                      |
|    \\/     M anipulation  |                                                 |
\*---------------------------------------------------------------------------*/
FoamFile
{
    version     2.0;
    format      ascii;
    arch        "LSB;label=32;scalar=64";
    class       volVectorField;
    location    "5";
    object      U;
}
// * * * * * * * * * * * * * * * * * * * * * * * * * * * * * * * * * * * * * //

dimensions      [0 1 -1 0 0 0 0];

internalField   nonuniform List<vector> 
38
(
(0.962658 -0.00136131 0)
(1.08239 -0.00169118 0)
(1.00897 0.00450617 0)
(0.973822 0.00820298 0)
(1.18989 0.0815035 -1.89968e-21)
(1.18037 0.0379649 0)
(1.10885 0.0388648 0)
(1.0297 0.00988473 0)
(1.05655 0.0228864 0)
(1.02678 0.0173581 0)
(1.00607 0.00346033 0)
(1.26434 0.167842 -4.78226e-20)
(1.25282 0.12082 1.14853e-19)
(1.05849 0.0298265 0)
(1.16271 0.248821 -1.57821e-20)
(1.09958 0.0713305 0)
(1.05358 0.0304732 0)
(1.04807 0.00381005 0)
(1.06388 0.0217343 0)
(1.07654 0.074959 0)
(1.06425 0.0321679 0)
(1.0876 0.034109 0)
(1.10477 0.0818811 0)
(1.12594 0.164602 1.28783e-20)
(1.13224 0.138005 1.39904e-21)
(1.01037 0.0249102 -1.50784e-20)
(1.01723 0.0184725 1.34776e-19)
(0.989601 0.200223 -2.55016e-19)
(0.924855 0.27072 -1.28549e-20)
(0.915311 0.211564 2.86324e-19)
(0.953837 0.153641 0)
(0.956296 0.20012 0)
(1.06039 0.0921658 9.16153e-20)
(0.977333 0.139012 -1.35e-20)
(0.988825 0.192669 -4.75874e-20)
(1.03757 0.199536 0)
(0.946613 0.286186 6.5977e-20)
(0.99018 0.234685 1.03274e-19)
)
;

boundaryField
{
    wall-4
    {
        type            noSlip;
    }
    velocity-inlet-5
    {
        type            fixedValue;
        value           nonuniform List<vector> 0();
    }
    velocity-inlet-6
    {
        type            fixedValue;
        value           nonuniform List<vector> 0();
    }
    pressure-outlet-7
    {
        type            zeroGradient;
    }
    wall-8
    {
        type            noSlip;
    }
    frontAndBackPlanes
    {
        type            empty;
    }
    procBoundary9to0
    {
        type            processor;
        value           nonuniform List<vector> 2((0.997816 0.00927609 0) (1.04103 -0.00465419 0));
    }
    procBoundary9to6
    {
        type            processor;
        value           nonuniform List<vector> 3((1.26216 0.313023 0) (1.17009 0.2642 -4.74582e-20) (1.07986 0.27698 1.73916e-20));
    }
    procBoundary9to8
    {
        type            processor;
        value           uniform (0.923878 0.34988 1.49552e-19);
    }
    procBoundary9to10
    {
        type            processor;
        value           nonuniform List<vector> 3((0.838773 0.262662 3.55533e-19) (0.857738 0.227789 1.32895e-19) (0.957617 0.15319 2.44845e-19));
    }
    procBoundary9to11
    {
        type            processor;
        value           nonuniform List<vector> 6((1.0296 0.0918223 0) (1.04592 0.0565886 0) (0.995788 0.042163 8.5551e-20) (0.968728 0.0126092 0) (0.986471 0.0919596 -1.88146e-19) (0.996027 0.0978598 8.70709e-20));
    }
}


// ************************************************************************* //
