/*--------------------------------*- C++ -*----------------------------------*\
| =========                 |                                                 |
| \\      /  F ield         | OpenFOAM: The Open Source CFD Toolbox           |
|  \\    /   O peration     | Version:  2412                                  |
|   \\  /    A nd           | Website:  www.openfoam.com                      |
|    \\/     M anipulation  |                                                 |
\*---------------------------------------------------------------------------*/
FoamFile
{
    version     2.0;
    format      ascii;
    arch        "LSB;label=32;scalar=64";
    class       volScalarField;
    location    "4";
    object      p;
}
// * * * * * * * * * * * * * * * * * * * * * * * * * * * * * * * * * * * * * //

dimensions      [0 2 -2 0 0 0 0];

internalField   nonuniform List<scalar> 
38
(
0.221399
0.0666693
0.217552
0.203969
0.0339299
-0.0547469
0.109989
0.135049
0.162084
0.187823
0.173438
-0.0717949
-0.177374
0.199544
0.0251392
0.137384
0.21357
0.229624
0.220831
0.17712
0.193548
0.176757
0.137178
0.109293
0.0900854
0.225413
0.238076
0.190904
0.264611
0.269865
0.250811
0.249108
0.197828
0.210209
0.191085
0.192943
0.227946
0.16764
)
;

boundaryField
{
    wall-4
    {
        type            zeroGradient;
    }
    velocity-inlet-5
    {
        type            zeroGradient;
    }
    velocity-inlet-6
    {
        type            zeroGradient;
    }
    pressure-outlet-7
    {
        type            fixedValue;
        value           nonuniform List<scalar> 0();
    }
    wall-8
    {
        type            zeroGradient;
    }
    frontAndBackPlanes
    {
        type            empty;
    }
    procBoundary9to0
    {
        type            processor;
        value           nonuniform List<scalar> 2(0.226308 0.231412);
    }
    procBoundary9to6
    {
        type            processor;
        value           nonuniform List<scalar> 3(-0.0999135 0.0516601 0.131866);
    }
    procBoundary9to8
    {
        type            processor;
        value           uniform 0.220225;
    }
    procBoundary9to10
    {
        type            processor;
        value           nonuniform List<scalar> 3(0.291106 0.281375 0.268371);
    }
    procBoundary9to11
    {
        type            processor;
        value           nonuniform List<scalar> 6(0.20396 0.210268 0.232034 0.244609 0.217241 0.221332);
    }
}


// ************************************************************************* //
