/*--------------------------------*- C++ -*----------------------------------*\
| =========                 |                                                 |
| \\      /  F ield         | OpenFOAM: The Open Source CFD Toolbox           |
|  \\    /   O peration     | Version:  2412                                  |
|   \\  /    A nd           | Website:  www.openfoam.com                      |
|    \\/     M anipulation  |                                                 |
\*---------------------------------------------------------------------------*/
FoamFile
{
    version     2.0;
    format      ascii;
    arch        "LSB;label=32;scalar=64";
    class       surfaceScalarField;
    location    "4";
    object      phi;
}
// * * * * * * * * * * * * * * * * * * * * * * * * * * * * * * * * * * * * * //

dimensions      [0 3 -1 0 0 0 0];

oriented        oriented;

internalField   nonuniform List<scalar> 
46
(
3.20472
3.62665
-3.62665
3.26878
-0.0640615
3.26878
3.79589
-0.169242
3.79589
-3.45681
-0.169841
-3.45681
-3.34337
-0.113435
3.34337
-0.074591
3.93737
-0.141481
-6.68181
6.60722
-7.54056
-7.78381
7.61397
-4.193
-2.48881
4.25706
2.34001
-4.25494
4.36837
5.05364
2.56034
-4.88439
-2.65616
-3.91931
-2.19399
-3.16656
5.36055
-3.21338
2.15925
-3.02117
5.21516
-2.11887
4.13855
1.68418
-1.48239
-2.33911
)
;

boundaryField
{
    wall-4
    {
        type            calculated;
        value           uniform 0;
    }
    velocity-inlet-5
    {
        type            calculated;
        value           nonuniform List<scalar> 0();
    }
    velocity-inlet-6
    {
        type            calculated;
        value           nonuniform List<scalar> 0();
    }
    pressure-outlet-7
    {
        type            calculated;
        value           nonuniform List<scalar> 0();
    }
    wall-8
    {
        type            calculated;
        value           nonuniform List<scalar> 0();
    }
    frontAndBackPlanes
    {
        type            empty;
    }
    procBoundary9to0
    {
        type            processor;
        value           nonuniform List<scalar> 2(-3.20472 -6.59707);
    }
    procBoundary9to6
    {
        type            processor;
        value           nonuniform List<scalar> 3(3.93737 7.39908 3.02143);
    }
    procBoundary9to8
    {
        type            processor;
        value           uniform 4.49836;
    }
    procBoundary9to10
    {
        type            processor;
        value           nonuniform List<scalar> 3(1.05414 -0.192207 -3.09629);
    }
    procBoundary9to11
    {
        type            processor;
        value           nonuniform List<scalar> 6(-3.52888 2.23885 1.4305 -1.5793 -1.57821 -3.80305);
    }
}


// ************************************************************************* //
