/*--------------------------------*- C++ -*----------------------------------*\
| =========                 |                                                 |
| \\      /  F ield         | OpenFOAM: The Open Source CFD Toolbox           |
|  \\    /   O peration     | Version:  2412                                  |
|   \\  /    A nd           | Website:  www.openfoam.com                      |
|    \\/     M anipulation  |                                                 |
\*---------------------------------------------------------------------------*/
FoamFile
{
    version     2.0;
    format      ascii;
    arch        "LSB;label=32;scalar=64";
    class       volVectorField;
    location    "4";
    object      U;
}
// * * * * * * * * * * * * * * * * * * * * * * * * * * * * * * * * * * * * * //

dimensions      [0 1 -1 0 0 0 0];

internalField   nonuniform List<vector> 
38
(
(0.966395 -0.00858385 0)
(1.09165 -0.00494322 0)
(1.01129 0.00860187 0)
(0.986756 0.0152108 0)
(1.19373 0.0829672 5.9085e-21)
(1.19259 0.0371501 0)
(1.11747 0.0380683 0)
(1.04031 0.0108067 0)
(1.06285 0.0233445 0)
(1.03827 0.015074 0)
(1.01362 -0.00261768 0)
(1.26483 0.170631 -1.68895e-20)
(1.26815 0.126001 7.85296e-20)
(1.05678 0.025535 0)
(1.17029 0.252006 1.51688e-19)
(1.0984 0.0618177 0)
(1.04667 0.0286408 0)
(1.05375 0.0153158 0)
(1.06322 0.0269788 0)
(1.07432 0.066096 0)
(1.06786 0.0324923 0)
(1.08516 0.0393441 0)
(1.10831 0.0848903 0)
(1.12833 0.160837 -1.2404e-19)
(1.12997 0.134511 -4.35212e-21)
(1.00375 0.0242281 -2.08942e-20)
(1.01605 0.0197309 1.81431e-19)
(0.984079 0.197741 -3.94582e-19)
(0.927208 0.266054 -1.2973e-20)
(0.918185 0.216709 3.78922e-19)
(0.949746 0.161042 0)
(0.949204 0.205876 0)
(1.06332 0.10853 1.37209e-19)
(0.966428 0.160684 -1.09329e-20)
(0.984435 0.187364 -7.54741e-20)
(1.01908 0.209013 0)
(0.940728 0.291671 9.99924e-20)
(1.0049 0.235277 1.59282e-19)
)
;

boundaryField
{
    wall-4
    {
        type            noSlip;
    }
    velocity-inlet-5
    {
        type            fixedValue;
        value           nonuniform List<vector> 0();
    }
    velocity-inlet-6
    {
        type            fixedValue;
        value           nonuniform List<vector> 0();
    }
    pressure-outlet-7
    {
        type            zeroGradient;
    }
    wall-8
    {
        type            noSlip;
    }
    frontAndBackPlanes
    {
        type            empty;
    }
    procBoundary9to0
    {
        type            processor;
        value           nonuniform List<vector> 2((1.00331 0.00784239 0) (1.04262 -0.005716 0));
    }
    procBoundary9to6
    {
        type            processor;
        value           nonuniform List<vector> 3((1.26608 0.312238 0) (1.17337 0.274909 -4.8992e-20) (1.07773 0.276863 8.91879e-20));
    }
    procBoundary9to8
    {
        type            processor;
        value           uniform (0.911794 0.374984 2.14073e-19);
    }
    procBoundary9to10
    {
        type            processor;
        value           nonuniform List<vector> 3((0.835858 0.26241 4.36164e-19) (0.834351 0.237796 1.73696e-19) (0.955529 0.159787 3.09815e-19));
    }
    procBoundary9to11
    {
        type            processor;
        value           nonuniform List<vector> 6((1.02424 0.0812061 0) (1.04719 0.0660939 0) (0.992796 0.0506908 1.24042e-19) (0.953618 0.00781898 0) (0.985507 0.085956 -2.67778e-19) (0.988918 0.0982738 1.19286e-19));
    }
}


// ************************************************************************* //
