/*--------------------------------*- C++ -*----------------------------------*\
| =========                 |                                                 |
| \\      /  F ield         | OpenFOAM: The Open Source CFD Toolbox           |
|  \\    /   O peration     | Version:  2412                                  |
|   \\  /    A nd           | Website:  www.openfoam.com                      |
|    \\/     M anipulation  |                                                 |
\*---------------------------------------------------------------------------*/
FoamFile
{
    version     2.0;
    format      ascii;
    arch        "LSB;label=32;scalar=64";
    class       volScalarField;
    location    "20";
    object      p;
}
// * * * * * * * * * * * * * * * * * * * * * * * * * * * * * * * * * * * * * //

dimensions      [0 2 -2 0 0 0 0];

internalField   nonuniform List<scalar> 
918
(
0.211058
0.893572
0.0102389
0.209968
-0.0013463
0.860693
-0.853399
0.388677
0.191073
-0.474086
-0.0798364
0.180122
0.721112
0.488196
-1.48095
0.00398341
0.344143
-0.735144
0.189757
-0.00328878
0.465342
0.197823
0.200824
0.19139
0.25077
0.478589
0.601549
0.00179004
-0.00100858
-0.00440079
0.00501023
-0.00723884
-0.00236986
0.744327
0.795424
0.818079
0.160038
-0.0128559
-0.703234
-0.780741
-0.764105
-0.90456
0.376884
0.381912
-0.505042
0.391178
0.407048
0.178675
0.190321
0.191143
0.192618
0.191437
0.192869
0.155439
-0.474171
-0.497273
-0.458409
-0.445806
-0.0988074
-0.11629
-0.162993
-0.0532939
-0.0386009
0.116576
0.17705
0.175513
0.185358
0.19514
0.83312
0.805016
0.831154
0.744867
0.761376
0.699066
0.671558
0.508338
0.529455
0.473321
0.463483
-1.92483
-2.89958
-0.878318
-0.618833
0.00064226
0.00450349
0.0051414
0.330442
0.338056
0.342144
0.355155
0.732925
-0.718507
-0.863972
0.189885
0.188544
0.197139
0.197802
0.19379
0.192895
0.00650315
0.0108944
-0.014576
-0.00254897
-0.00705701
0.448691
0.442734
0.191933
0.188992
0.202928
0.22544
0.214015
-0.0401256
0.261433
0.282777
0.284259
0.461633
0.458536
0.466391
0.57502
0.537743
0.638994
0.662282
0.013661
0.00385902
-0.00370125
-0.00115217
-0.00343861
0.156217
0.149285
0.173066
0.163693
0.165845
-0.096556
-0.23166
0.0708636
0.0943011
-0.611158
-0.678637
-0.786695
-0.800735
-0.915065
0.212172
0.366656
0.369117
-0.523161
-0.438597
-0.585279
-0.363808
-0.434849
0.16941
0.176111
0.17132
0.186205
0.180852
0.182772
0.194451
0.191531
0.193133
0.183948
0.297862
0.0899774
0.0296902
-0.602157
-0.500836
-0.588077
-0.434343
-0.386261
-0.0972285
-0.105974
-0.109389
-0.0598648
-0.347564
-0.221819
-0.286492
-0.0216013
-0.0149529
0.109533
0.100649
0.126272
0.132472
0.168879
0.169756
0.17294
0.170804
0.622312
0.644634
0.652163
0.625985
-3.91276
-6.73962
-0.284067
-0.14044
0.00209626
0.00308712
0.00223202
0.00544062
0.00302216
0.000832926
-0.0129656
-0.00745121
0.00467297
0.00176298
0.31619
0.320302
0.651863
0.651139
0.64258
0.618068
0.17784
0.179929
0.185491
0.181386
-0.00110372
0.0100125
0.0036281
0.409684
0.428932
0.425828
-0.0757122
-0.162859
0.00657888
0.0332938
0.303061
0.287639
0.304502
0.347397
0.384519
0.669702
0.688039
0.686326
0.694842
0.738913
0.755354
0.720602
0.137125
0.145528
0.141042
0.176856
0.174382
0.175445
0.169517
0.171831
0.16882
-0.385581
-0.772434
0.163894
0.177053
0.137563
0.146291
0.300863
0.373359
0.350247
0.358112
0.362712
-0.300263
-0.365264
0.0020543
-0.0246282
0.0585158
0.0898311
0.0737646
0.593336
0.554076
0.603929
0.577428
0.53893
0.564534
-0.72415
-2.2562
-1.35609
0.224569
0.0297933
0.120969
-0.0359955
-0.0360149
-0.0266667
0.630936
0.710317
0.347352
0.503161
0.524165
0.426271
0.458171
0.510486
0.434953
0.470116
0.506695
0.489471
0.170564
0.167079
0.148248
0.443755
0.499285
-0.188708
-0.238303
-0.29311
-0.106016
-0.058028
-0.0858885
0.681545
0.565161
0.64436
0.18882
0.189481
0.0111207
0.0157079
0.193223
0.193079
0.00617035
0.00429868
0.101974
-1.19257
-0.197144
0.181522
0.172381
0.18897
-0.457327
0.0367082
-0.119605
-0.064838
0.0749209
0.179316
0.126426
0.0933117
0.00524203
0.0132935
-0.00787525
-0.535371
0.186453
0.184795
0.188552
0.189602
0.190264
0.005263
0.00680441
0.00466638
-0.00263788
0.00114657
-0.00146849
0.154589
0.16908
-0.503094
0.188496
0.190741
0.190371
0.183425
0.188999
0.187344
0.0111179
0.00553002
0.000282621
-0.0888028
0.0255936
0.359741
0.468164
0.312844
0.0840602
-0.160695
0.254918
0.324269
0.220868
0.388485
0.352984
0.376766
-0.137132
-0.282973
-0.12764
-0.183515
0.179454
0.178089
0.17066
0.167993
0.184133
0.182259
0.186515
0.183443
0.186236
0.187908
-0.477838
-0.441487
-0.442679
-0.475375
-0.0160331
0.263618
-0.100203
0.0144543
-0.114515
-0.0920774
-0.06192
-0.190075
-0.232503
-0.194279
0.0272965
-0.0130043
-0.089834
0.067431
-0.00915089
-0.144646
-0.0268247
-0.0890672
0.173609
0.170416
0.17924
0.185891
0.134321
0.135826
0.108675
0.124659
0.112898
0.0574314
0.0906653
0.0684788
0.00703062
0.00731475
0.0057308
0.0166304
0.0125337
0.00756084
0.0085065
0.0117907
0.00306319
0.00474838
-0.00541419
0.00347105
-0.506419
-0.624208
0.636806
0.615413
-0.187262
0.175672
0.182095
0.178924
0.183635
0.186633
0.187424
0.185285
0.181839
0.17008
0.172172
0.168207
0.168749
-0.446349
-0.579668
-0.402284
-0.46403
-0.205893
0.293913
0.0382224
-0.0210618
-0.0249133
0.184332
0.577873
0.387349
0.420517
0.447947
-0.691351
-0.288197
-0.621017
-0.00288434
-0.183917
0.356991
0.41043
0.435092
0.379887
0.328159
-0.459277
0.185144
-0.37998
-0.338618
-0.151194
-0.248785
0.406197
0.337571
0.343049
0.36771
0.392349
0.343336
0.321973
0.319911
0.356879
0.360826
0.158641
-0.0566112
-0.102334
-0.138027
0.32625
0.198254
0.253584
0.172332
0.174022
0.177092
0.175562
0.159012
0.166206
0.162101
0.167062
0.169928
0.179704
0.179607
0.175243
0.177513
-0.43837
-0.440561
-0.430616
-0.468519
-0.472124
-0.535479
-0.419975
-0.289065
-0.380354
-0.0578478
0.00811096
-0.28436
-0.41648
-0.376491
-0.360258
-0.135101
-0.0984586
-0.477962
-0.122808
-0.343516
-0.378497
-0.0998654
-0.0432072
-0.192265
-0.258938
-0.33398
-0.228474
-0.126826
-0.168736
-0.182018
-0.0187498
-0.0642549
-0.0474577
-0.0208895
-0.400786
-0.389316
-0.358382
-0.505339
0.0109982
0.0131455
0.0130925
0.00421052
0.0133025
0.00815184
0.167981
0.167933
0.167593
0.181935
0.19385
0.209116
0.175708
0.153335
0.145555
0.147419
0.123949
0.131862
0.128834
0.140749
0.157984
0.165918
0.164907
0.167189
0.151669
0.152509
0.142131
0.145867
0.124869
0.107726
0.0981046
0.00915116
0.00704212
0.00781697
0.00721171
0.0101591
0.0103626
0.0218981
0.0179498
0.0190819
0.0169109
0.00540364
0.013515
0.00971722
-0.426718
-0.355442
-0.530589
-0.566902
-0.633654
0.552781
0.660715
0.495911
0.264588
0.271546
0.490726
0.589304
0.249322
0.425938
0.462451
0.173624
0.460384
0.180337
0.179608
0.177296
0.176845
0.178089
-0.353362
-0.254305
-0.24289
-0.191531
-0.0756981
0.0377326
-0.0412632
-0.178121
-0.0326426
-0.0155886
0.288468
0.302275
0.246727
0.273455
0.27341
0.0999113
0.173979
0.228768
0.185201
0.226167
0.248216
0.21168
0.240164
0.186907
0.146993
0.146228
0.0943884
0.113522
0.0913482
0.0744731
0.169726
0.14984
0.158408
0.151914
0.170334
0.198908
0.193337
0.216519
0.230004
0.157356
0.12003
0.127882
0.154254
0.119519
0.131657
0.14538
-0.139155
-0.238655
-0.151386
-0.44771
-0.35293
-0.368446
-0.414341
-0.379565
-0.0929094
-0.799088
-0.762517
-1.40108
0.121979
0.608415
0.358408
0.329124
0.390362
0.366258
0.368716
0.403114
0.409134
0.316449
0.328243
0.334699
0.286284
0.311231
0.343143
0.338443
0.166154
0.0501023
0.0380003
0.00579321
-0.113576
-0.0841787
0.115232
0.0390476
-0.0311773
-0.0240446
0.134524
0.0296915
0.0914886
0.128782
0.0615784
0.0206587
0.214818
0.284219
0.274639
0.246271
0.161961
0.174501
0.198634
0.235346
0.261588
0.295039
0.167481
0.172753
0.173877
0.171582
0.169229
0.171642
0.17147
0.174106
0.175034
0.177696
0.176782
-0.310113
-0.360879
-0.421219
-0.360322
-0.555098
-0.537844
-0.427446
-0.444794
-0.468767
-0.540987
-0.546159
-0.49648
-0.446407
-0.425589
-0.371565
-0.28817
-0.263008
-0.353956
-0.0547415
0.0725819
0.128421
0.011847
-0.0878062
-0.0776313
-0.0486913
-0.377883
-0.208694
-0.241262
-0.235496
-0.388744
-0.0814275
-0.0678455
-0.0741698
-0.0757455
-0.113023
-0.0477831
0.00213085
-0.00587716
-0.0163795
-0.00654802
0.00157113
0.157431
0.150704
0.148352
0.144793
0.144441
0.153611
0.158365
0.161142
0.166656
0.167157
0.158601
0.163095
0.165879
0.0160155
0.0111644
0.0156349
-0.000970557
0.00619587
0.0106107
0.00307287
-0.246048
-0.293289
-0.2928
-0.3392
-0.471125
-0.409914
0.125859
0.0966128
0.134498
0.330711
0.185853
0.105313
0.175626
0.284247
-0.0930174
0.103739
-0.0637298
0.529385
0.413889
0.553803
0.18053
-0.1193
0.0213556
0.0776934
-0.116701
-0.0460515
-0.022136
-0.131805
-0.0982624
-0.0701979
0.0283118
-0.0905545
-0.120813
-0.362568
-0.17624
-0.051733
-0.0730203
0.0556836
0.117337
-0.10061
-0.184445
-0.227231
0.27736
0.296179
0.313309
0.285134
0.309321
0.233966
0.226103
0.24409
0.254951
0.248249
-1.134
-0.846209
-1.78559
-1.09567
-0.653439
0.149923
0.106586
0.396045
0.291502
0.373618
0.357032
0.317663
0.279631
0.287602
0.32579
0.0290879
0.134539
0.109456
0.116987
0.0230571
-0.0409824
0.24922
0.244203
0.279079
0.30292
0.273186
0.304332
0.165513
0.164823
0.165077
0.161718
0.16067
0.161473
-0.509185
-0.545416
-0.444919
-0.425862
-0.456972
-0.502624
0.0207965
-0.00533614
-0.00425958
0.000358311
0.0268499
0.0210184
-0.201236
-0.262609
-0.326729
-0.308905
-0.355837
-0.423228
-0.440086
-0.337761
-0.245972
-0.257839
0.0472656
0.299257
0.122407
0.297488
0.138007
0.198862
0.136029
0.124214
0.160118
0.0275613
0.104758
-0.167237
-0.660116
-0.569972
0.408512
0.430166
0.211194
0.0155428
-0.206556
-0.0071351
0.196586
0.137526
0.177018
0.244714
0.23863
-0.36887
-0.289666
-0.0680292
0.159924
-0.137454
-0.141941
-0.145831
0.0125114
-0.05361
)
;

boundaryField
{
    wall-4
    {
        type            zeroGradient;
    }
    velocity-inlet-5
    {
        type            zeroGradient;
    }
    velocity-inlet-6
    {
        type            zeroGradient;
    }
    pressure-outlet-7
    {
        type            fixedValue;
        value           uniform 0;
    }
    wall-8
    {
        type            zeroGradient;
    }
    frontAndBackPlanes
    {
        type            empty;
    }
}


// ************************************************************************* //
