/*--------------------------------*- C++ -*----------------------------------*\
| =========                 |                                                 |
| \\      /  F ield         | OpenFOAM: The Open Source CFD Toolbox           |
|  \\    /   O peration     | Version:  2412                                  |
|   \\  /    A nd           | Website:  www.openfoam.com                      |
|    \\/     M anipulation  |                                                 |
\*---------------------------------------------------------------------------*/
FoamFile
{
    version     2.0;
    format      ascii;
    arch        "LSB;label=32;scalar=64";
    class       surfaceScalarField;
    location    "20";
    object      phi;
}
// * * * * * * * * * * * * * * * * * * * * * * * * * * * * * * * * * * * * * //

dimensions      [0 3 -1 0 0 0 0];

oriented        oriented;

internalField   nonuniform List<scalar> 
1300
(
3.75095
5.62643
-5.9897
3.75095
-5.8692
5.62643
-4.55116
4.55116
-1.25105
1.25105
1.87673
1.87422
-2.71501
2.71501
-3.79129
3.79129
-2.65826
2.65826
-5.24644
5.24644
-5.06862
5.06862
4.6838
-4.6838
-4.75631
4.75631
-1.73055
1.73055
-3.8654
3.8654
3.17017
-3.17017
-4.57407
4.57407
-0.437384
0.437384
-0.553365
4.30432
3.19759
3.19759
-2.36244
2.36244
-4.85412
4.85412
6.21824
-6.21824
9.05446
-9.05446
-3.06476
-3.43708
1.32815
-8.24219
-4.54105
-4.54105
-8.44041
8.44041
-2.81398
2.81245
2.94167
-2.94167
-1.75661
1.75661
-4.49256
-0.0586052
-4.49256
4.54439
0.00677252
4.54439
-1.37398
0.122928
-1.37398
4.01174
-4.01174
1.10345
0.147605
1.10345
3.06401
-3.06401
-1.87693
3.75366
1.87402
-1.87159
6.17591
-1.87936
3.75358
-5.78682
5.78682
-3.05293
0.337911
-3.05293
2.55968
0.155339
2.55968
-5.209
5.209
-3.37571
-0.415583
-3.37571
4.10663
-0.31534
4.10663
2.88727
-2.88727
-2.69322
0.0349669
-2.69322
2.60669
0.0515632
2.60669
0.35357
5.27286
-5.98
8.79245
-5.27286
0.0264179
5.20847
0.0379768
5.20847
-5.1062
0.0375789
-5.1062
5.00996
0.0586614
5.00996
4.77868
-0.094878
4.77868
-4.79657
0.112774
-4.79657
-3.33165
-3.48867
-4.85173
0.0954268
-4.85173
-1.71127
-0.0192798
-1.71127
1.69927
0.0312773
1.69927
-3.48022
3.48022
-4.27096
0.405562
-4.27096
3.1255
0.0446753
3.1255
1.86863
1.88233
5.61958
-5.61958
2.44941
-4.50937
-0.0646988
-4.50937
-4.6752
-4.37926
4.6752
-0.101133
-0.734591
0.297208
-0.734591
3.15941
0.0381772
3.15941
2.5261
0.0805922
-2.5261
0.163662
3.34271
-3.34271
1.73305
0.629388
1.73305
-5.56982
5.56982
4.95018
0.0597843
-4.95018
0.0960573
6.15753
0.0607153
6.15753
-6.19961
-0.0186331
-6.19961
3.32895
-6.76604
-3.46451
4.64943
0.106873
-4.64943
0.108381
2.90592
0.0357503
2.90592
-2.92203
2.92203
-2.98211
0.0404369
-2.98211
-2.17315
0.416543
-2.17315
1.43835
0.318254
1.43835
-4.35439
-0.138166
-4.35439
-4.45334
0.18238
4.45334
0.0910459
0.933738
-0.933738
-1.51019
0.136213
-1.51019
-4.16835
-0.186041
4.16835
-0.156608
-3.8982
-0.113535
-3.8982
-3.02243
0.0403238
3.02243
0.0415812
3.11218
0.0472348
-3.11218
0.0481635
-1.87093
3.75326
-1.88002
3.75404
-5.49602
-0.290804
-5.49602
5.91561
-0.128787
5.91561
3.46641
0.398988
-3.46641
0.413487
2.62883
-0.0691507
2.62883
-5.30157
0.0925694
-5.30157
5.1496
0.0593994
5.1496
2.92924
-0.300415
-2.92924
-0.446467
4.30776
-0.201126
4.30776
2.94296
-0.055695
2.94296
-2.85599
-0.0312776
-2.85599
2.79361
-2.79361
2.72972
0.0638893
-2.72972
0.0364987
-11.1327
11.1141
-0.0350423
-11.0976
5.17342
5.17342
4.20624
0.572438
4.20624
-5.00779
0.211215
-5.00779
3.29917
-6.76369
3.47701
-6.80865
3.47477
-11.717
3.37382
-6.86249
5.0667
-5.0667
4.95824
0.108458
-4.95824
0.106507
-1.73694
0.0256777
-1.73694
-2.85426
-0.625957
-2.85426
4.17712
-0.696906
4.17712
-3.03272
3.03272
-3.0803
0.0475859
3.0803
0.0451965
4.42696
-0.119203
-4.42696
-0.0824071
0.930843
0.172606
-0.930843
0.196252
3.55074
-0.208033
3.55074
-3.14661
-0.196105
-3.14661
-1.74179
0.00484993
1.74179
-0.00874401
-5.8169
0.247088
-5.8169
-11.1907
0.0930521
-11.1527
-6.10656
-6.10656
2.33385
11.1263
-2.86656
0.0105719
2.86656
0.0393598
2.97921
0.0535029
-2.97921
0.0571825
-2.86163
0.0680145
2.86163
0.0604056
-2.56204
0.388889
-2.56204
-1.02727
1.02727
-1.20959
0.182327
1.20959
0.228758
1.19141
-0.257677
1.19141
1.61268
0.0865893
-1.61268
0.102486
-3.80639
-0.091811
-3.80639
5.82283
0.0927827
5.82283
-3.02398
-0.12263
3.02398
-0.0810146
-0.0333024
11.1474
-5.14012
0.0339192
5.14012
-11.2081
11.242
-3.24506
0.683027
3.24506
0.961176
5.29479
0.275021
-5.29479
0.287005
5.14631
0.00329222
-5.14631
0.0796067
-2.36158
-0.492685
-2.36158
-4.94392
-0.552097
4.94392
-0.766799
-11.4752
-0.20367
11.6789
-11.4165
6.02057
0.136954
-6.02057
11.3789
-0.905645
-0.0280933
0.905645
0.121622
1.50233
-0.310913
1.50233
3.71886
-0.168119
-3.71886
-0.0875304
-5.55539
0.253827
5.55539
0.267436
-1.9199
-0.441675
1.9199
-0.417572
-4.26634
4.30452
1.90957
-3.26901
-3.49703
-7.64827
1.85238
1.90088
4.30179
-7.25397
-4.46299
-7.14559
7.27335
-6.98635
-9.30266
9.20778
7.5066
-7.62014
-5.78462
5.82981
6.48182
-6.44024
1.87818
1.87548
7.04621
-6.7083
-15.8249
15.5341
7.6794
-8.09498
14.5584
-14.4658
-14.4554
14.4587
-5.76818
5.80314
-6.64894
6.61767
-6.8295
6.74849
-3.2315
-3.57715
9.51145
-9.41602
11.5464
-11.6111
-8.40502
8.81059
3.3824
0.922117
3.42964
-1.88227
3.76044
-1.87132
3.78089
3.48936
-6.72086
3.27433
-6.77136
6.03461
5.51182
-5.93348
-1.71479
-5.89191
5.92766
-5.82233
5.88274
8.94983
-9.00843
-1.88629
3.76177
-1.86776
3.76863
-3.42466
-2.35996
3.37998
0.921809
5.77337
3.73808
-5.88024
-1.26535
-7.71178
7.54366
-7.99844
7.80233
-0.453981
5.82444
-5.37046
4.40014
-1.5537
7.37813
5.71966
5.93087
5.868
-5.59298
1.11835
-6.48881
-6.39275
-2.57454
2.71075
2.58667
-2.43907
5.90844
1.59816
5.75184
-5.49152
-2.12862
-5.58333
3.81941
2.0104
3.867
4.07689
2.40493
4.11721
3.03036
-3.03643
0.00606442
-3.05582
6.08618
0.725339
-5.41578
-4.49397
3.80485
3.24136
3.96019
-5.1779
-1.5304
-4.76441
-9.51346
-6.31142
-10.0656
10.2309
5.30321
10.1021
-11.8758
12.1432
5.73941
1.93998
5.42407
-4.39272
-3.70226
-4.83918
11.4968
-0.744268
-10.7525
-8.79577
-5.65961
8.73637
5.82205
8.46695
5.99173
8.54655
3.16055
8.33622
-8.98261
3.32299
-3.85792
-1.91025
-3.82142
3.74302
2.06012
3.79458
-4.15206
-2.49689
-4.14148
-4.19625
-2.63325
4.25195
2.36572
-4.29914
-3.6993
4.42177
2.32672
3.2063
-7.66929
3.65619
-7.23334
-6.75958
-2.65644
-6.65308
4.29845
2.48883
-6.78728
-2.42241
10.9086
-5.39674
9.19377
-7.00222
-4.60891
-7.08463
-6.7981
-1.60693
-6.61572
-8.79296
8.30027
-9.08388
8.38697
12.6783
-5.62226
-7.05602
-3.96837
-2.47187
3.92021
-0.49057
-3.71152
3.71759
0.0489221
3.82981
4.75193
4.26136
-3.88706
-1.93527
-3.82988
3.8277
2.05503
3.89572
6.76518
2.18464
6.77196
-6.40222
-2.60621
-6.54039
9.08983
-8.67328
2.96845
-2.9636
5.21867
2.58366
-5.01063
-2.70115
6.03465
-3.03039
-3.00427
-12.2228
10.592
1.63084
-4.84469
-0.444546
-0.00716284
-5.51338
-3.78927
5.40061
0.530261
11.1222
7.33297
-5.51386
5.76094
6.165
6.22478
-0.167966
5.8552
-5.17218
5.26149
-2.26097
-3.00052
5.24996
-5.436
-1.29043
-5.23497
3.94454
0.315835
1.88558
-1.58837
-2.05635
-0.518186
-1.95387
1.59363
0.993044
1.76623
0.977635
1.73312
-2.96076
0.583023
2.37773
-1.98312
-1.85604
-3.54776
-1.00844
4.55619
5.48914
2.05452
-5.40161
-0.181721
2.73497
-2.7037
-0.686514
-2.86124
2.17419
-2.8607
-3.50449
-1.91051
5.415
-3.36869
-0.461187
3.31519
0.551811
-3.82094
-2.07097
3.7805
0.336709
-3.12815
6.20553
-3.07738
-5.06342
2.5287
3.55749
4.5391
-4.78964
2.44456
2.34507
-1.23215
3.26262
0.697572
3.19347
-6.70536
5.17496
5.62057
3.19001
-6.01956
1.25515
-5.45021
8.68618
-7.8311
-0.855085
3.66278
5.0234
7.17874
5.49955
-5.76594
12.9447
-1.68247
-6.14862
7.13268
-3.94267
4.88638
-8.82904
-10.3859
4.2373
-10.8074
12.1544
-1.34706
-3.17738
-8.69843
13.9848
-1.49644
-12.4883
8.60564
-6.36438
-3.41409
9.77847
-7.10865
7.11635
-3.4388
-3.67755
-9.85723
-4.60861
9.60341
2.53984
-9.12845
12.4514
-0.792236
5.28519
0.138882
5.08407
5.07555
-5.7424
0.666848
2.0331
-5.4719
3.32821
-9.07061
-5.2903
9.94107
-4.65077
-7.94674
-7.46503
-0.481711
1.64871
10.8027
-7.64043
5.4631
2.17734
3.31147
0.584246
-3.37536
-0.446065
0.345922
4.48963
-4.83555
4.14051
4.2211
3.40039
1.08924
3.79895
2.12871
-3.83831
-0.30317
-4.10234
1.4691
-1.73663
-3.6264
5.09549
-4.04753
0.421136
-2.70229
-3.55485
6.25714
-4.61254
3.05368
3.15185
5.10872
-4.9455
1.39065
-2.4386
-2.5069
2.65689
-4.39351
1.94382
3.15167
4.27054
0.571242
5.15825
4.78282
-7.64708
0.41374
8.5209
-7.25555
2.10992
6.43663
-7.57302
0.107988
-6.54509
0.941927
-6.33867
-5.84535
5.15684
-6.76377
-3.6722
6.16071
0.611247
-6.25176
-0.363963
-5.9596
-2.83335
-6.40128
-3.04945
-6.03442
-8.81539
-1.63989
-7.1755
6.66038
-6.54529
-3.52027
7.31209
1.07488
-7.35296
7.32486
-7.42611
7.1152
0.0950601
3.62253
4.35642
1.88455
-2.39038
4.27493
-5.03947
7.22411
-8.44874
3.40927
3.91901
-6.52522
-4.52973
5.02056
4.06927
5.33881
8.96686
-10.5624
1.5955
-10.8726
12.2339
-1.36123
-16.6487
5.77604
-7.68182
2.699
0.269449
2.72468
0.67287
2.41181
-3.08468
-2.29073
-2.29947
-2.25943
-3.31194
5.57137
1.10552
-3.32364
2.21812
-3.44544
4.55095
-0.0777479
-3.24589
5.22244
-2.81063
5.49189
-3.52318
1.9687
3.22402
5.50532
-2.2813
4.24686
-1.66319
1.76624
-4.04753
-1.54571
-3.00912
5.06924
-3.24802
3.66915
-0.233693
3.90285
-4.00988
0.979497
-0.609494
3.6116
3.77527
4.17035
-3.08111
2.88145
-4.54465
-1.16608
-3.9734
-0.821734
-0.377625
-3.68321
4.06084
6.04704
-6.42466
-5.30791
9.60931
-4.30139
7.73711
-5.43355
-2.30356
-4.28294
-4.39034
3.89405
1.96115
9.69826
0.200619
-5.63417
-4.97156
-4.01038
3.21971
2.04178
-2.07058
3.70142
2.07774
-0.192157
0.583153
1.18308
1.9303
-1.34714
0.20904
1.72126
-1.37933
1.98479
0.750188
-2.07137
0.117508
-1.29239
3.46657
1.08535
-2.07839
0.731247
1.11144
-3.37241
4.66488
-2.37007
-2.29481
5.77632
1.1688
-3.53887
4.06618
-3.75034
2.26784
-3.27628
-1.27103
-5.02137
-3.42321
-2.45363
4.67175
-3.11774
5.17226
1.16726
-4.99054
6.15781
-3.54023
1.62973
-2.98113
3.73131
-1.01072
-1.97041
2.75702
2.65798
-2.87356
0.0123178
-0.116539
2.31544
-2.43198
-0.545258
-2.52838
-4.57045
4.90716
-2.10941
4.55397
2.16552
-1.91137
6.46534
1.81534
-3.72671
-3.24808
-3.70927
-1.38164
3.15746
-1.56557
-3.27362
-5.24312
3.57403
-0.380567
-6.549
7.0698
-0.520805
-3.30764
-1.86732
5.5301
-6.8583
1.3864
-3.53009
3.53971
4.23728
3.85672
-11.9882
-0.500136
-6.68497
0.885108
-7.57008
5.90851
-3.54174
7.77904
-10.4778
6.95755
-9.40293
6.92396
-0.646124
6.31506
-5.64821
4.43745
-9.04606
-6.50622
6.21295
-4.27297
6.35183
-4.71327
11.0651
-5.5055
7.03583
4.02927
-1.63662
-5.44801
-6.55269
4.91607
0.483144
5.56721
4.94713
-2.81842
4.64396
2.24644
-4.68504
-2.14707
-6.55758
1.87254
-3.40573
-1.91793
3.79047
3.19079
3.77503
1.28357
-3.32897
7.18481
-7.66653
-2.53405
-3.31131
6.65301
-1.73694
4.29457
-7.60588
-2.04409
4.94599
-0.882458
-4.06353
0.676275
-4.34848
1.61539
-5.96386
5.14838
-5.51234
2.18155
-9.86338
-5.1714
-5.04978
-2.25049
-5.17562
-7.6676
5.41711
-1.89156
5.4333
-8.70248
7.82002
-3.53139
8.94851
-5.36752
-1.03376
5.78509
1.33011
10.2786
0.0897776
-4.61951
-1.79585
3.90107
-2.10522
1.42386
-3.59344
0.30763
2.46142
3.3149
-6.40596
-0.119264
-4.73877
-3.90554
7.97481
5.70376
11.7508
1.18845
9.19183
-1.21702
10.3803
4.12179
4.35055
-2.98231
4.5778
1.07853
4.4878
-0.84486
2.81356
1.87982
1.86054
0.843157
2.30547
1.4698
3.28496
0.200289
-2.09919
4.66253
-8.67291
-0.97164
-8.10047
1.10731
5.74821
-4.64091
3.14664
-1.10487
1.04143
0.198036
-1.81341
1.61537
-2.80248
-2.00557
-0.28431
-1.63526
2.3665
1.83132
-2.08219
-0.720287
0.316194
-3.73941
2.96008
-2.94776
-0.289786
5.86802
-2.70409
0.272111
-1.07437
-2.25627
-2.77445
2.65695
6.1853
0.280047
3.10791
5.18721
3.11624
0.297814
4.94428
-6.29134
-4.12632
-6.79148
-0.882975
4.64713
2.83117
7.97156
6.86044
5.1235
-2.48238
-10.1489
6.59937
-2.02157
5.23814
-1.17461
-4.78925
4.94863
2.27548
-5.55988
0.0475372
-4.74171
-6.76328
-0.563643
8.38366
-9.71497
8.68121
5.84785
1.32764
-4.36231
-0.687469
4.17998
0.170569
10.5508
-1.13268
-6.90398
8.03666
-4.61554
3.6439
0.904054
2.79736
2.51943
1.41456
-5.48942
-10.1303
-1.80112
-1.57129
-4.09593
0.460265
-2.29158
6.2815
-2.63761
3.97794
5.39906
6.44048
-2.21125
-4.21341
6.51264
-2.5347
3.90578
)
;

boundaryField
{
    wall-4
    {
        type            calculated;
        value           uniform 0;
    }
    velocity-inlet-5
    {
        type            calculated;
        value           uniform -3.75095;
    }
    velocity-inlet-6
    {
        type            calculated;
        value           uniform -5.62643;
    }
    pressure-outlet-7
    {
        type            calculated;
        value           nonuniform List<scalar> 8(5.9897 5.8692 6.50184 6.91404 6.82032 6.79347 6.77618 6.84859);
    }
    wall-8
    {
        type            calculated;
        value           uniform 0;
    }
    frontAndBackPlanes
    {
        type            empty;
    }
}


// ************************************************************************* //
