/*--------------------------------*- C++ -*----------------------------------*\
| =========                 |                                                 |
| \\      /  F ield         | OpenFOAM: The Open Source CFD Toolbox           |
|  \\    /   O peration     | Version:  2412                                  |
|   \\  /    A nd           | Website:  www.openfoam.com                      |
|    \\/     M anipulation  |                                                 |
\*---------------------------------------------------------------------------*/
FoamFile
{
    version     2.0;
    format      ascii;
    arch        "LSB;label=32;scalar=64";
    class       volVectorField;
    location    "20";
    object      U;
}
// * * * * * * * * * * * * * * * * * * * * * * * * * * * * * * * * * * * * * //

dimensions      [0 1 -1 0 0 0 0];

internalField   nonuniform List<vector> 
918
(
(0.985146 -0.000536845 0)
(0.00500269 2.96626 0)
(-0.014541 1.58427 0)
(0.97969 0.00216498 0)
(-0.00370667 1.56262 6.1946e-21)
(-0.00703353 2.94878 -1.82618e-18)
(0.856672 1.20182 7.50346e-19)
(0.424007 0.192551 -8.51827e-21)
(0.999906 -0.000330267 0)
(0.0614636 0.790841 0)
(-0.039385 1.10029 0)
(0.770326 -0.0106468 0)
(0.0111263 2.93035 0)
(0.00152758 2.79496 0)
(-0.0178295 3.16781 1.10442e-18)
(-0.00373865 1.45468 -3.97972e-21)
(0.548228 0.0879696 5.31824e-19)
(0.195527 1.19657 6.66079e-19)
(0.96292 0.00511649 0)
(0.00224813 1.31783 0)
(0.141411 0.251258 -4.60359e-19)
(1.00207 -0.00500119 0)
(1.00024 -0.00973962 0)
(0.975776 -0.00645098 0)
(0.683109 -0.0363974 0)
(0.017819 2.63196 0)
(-0.015166 2.91021 6.26745e-19)
(-0.0259199 1.60369 0)
(-0.0306537 1.73649 0)
(-0.0265651 1.59745 0)
(-0.00572133 1.84271 0)
(0.000170257 1.58837 -4.90005e-21)
(-0.00391221 1.46786 0)
(-0.0206187 2.98759 -6.36972e-23)
(-0.0167031 3.0053 1.41947e-18)
(0.00210414 3.0002 0)
(0.870417 -0.00896997 0)
(0.392737 0.929018 -4.43423e-20)
(0.838764 1.21845 -1.05875e-18)
(0.985743 1.05658 9.89372e-19)
(0.705234 1.31367 -1.74134e-19)
(0.701584 1.30079 9.79896e-19)
(0.455691 0.276393 8.31102e-21)
(0.448513 0.17718 0)
(1.1664 0.563557 0)
(0.425909 0.291091 3.91427e-20)
(0.386266 0.195706 -4.06184e-20)
(0.919468 -0.00751569 0)
(1.00031 5.45058e-05 0)
(0.999912 0.00030359 0)
(1.00348 -0.00777722 0)
(1.00094 -0.00107294 0)
(1.00017 -1.51444e-05 0)
(0.021567 1.7787 -2.84155e-19)
(0.0534303 0.926601 0)
(0.0765602 0.891689 0)
(0.000216513 0.849885 0)
(0.00609149 0.736499 0)
(0.0340263 1.52867 0)
(-0.0543709 1.17015 0)
(-0.0539598 0.976119 0)
(-0.0338777 1.28952 0)
(-0.0233894 1.18809 0)
(0.849001 -0.0024314 0)
(0.866532 0.00970002 0)
(0.78177 -0.00401748 0)
(0.860202 0.0155135 0)
(0.755636 -0.011686 0)
(0.0147011 3.0004 6.6768e-19)
(0.011522 3.00792 0)
(0.00613111 3.00284 0)
(0.0135479 2.99734 7.43025e-24)
(0.00799235 2.95846 -9.92337e-19)
(0.0144976 2.98207 0)
(0.0108163 2.9036 0)
(0.0247309 2.93043 1.31656e-24)
(0.00424498 2.82535 0)
(0.0316124 2.91572 0)
(-0.00615513 2.74404 0)
(0.311372 3.56821 0)
(-0.132499 3.65045 0)
(0.141051 3.25872 1.02783e-18)
(-0.0112533 2.99103 0)
(-0.0206194 1.81906 0)
(0.00354965 1.61926 3.92575e-21)
(-0.00366978 1.46371 -4.48293e-21)
(0.597078 0.150432 -1.82711e-19)
(0.540081 0.0514643 -1.78679e-19)
(0.584117 0.185954 -5.5231e-19)
(0.531698 0.117426 -3.70242e-19)
(0.210443 0.894272 0)
(0.27597 1.34563 -6.7758e-19)
(0.394484 1.29664 1.11358e-18)
(0.987512 0.00843457 0)
(0.94262 0.0059731 0)
(1.00029 0.00054883 0)
(1.00289 0.00926764 0)
(1.00307 0.00847584 -9.82725e-19)
(0.991966 0.00968715 7.42085e-19)
(-0.0110613 1.47911 0)
(-0.00292645 1.30444 0)
(-0.0345198 1.60918 0)
(-0.0227805 1.5165 0)
(-0.00384666 1.35395 0)
(0.210637 0.264341 1.41942e-19)
(0.257441 0.24197 0)
(0.993571 -0.00825516 0)
(0.954404 -0.00643857 0)
(0.829606 0.0235552 0)
(0.796783 0.0356731 0)
(0.734385 -0.0267544 0)
(0.995581 -0.00423938 0)
(0.739905 0.0510239 0)
(0.595239 -0.0156019 7.03841e-19)
(-0.0356734 2.86545 3.05438e-19)
(0.0430535 2.90807 0)
(0.056806 2.88329 0)
(-0.00560437 2.69693 0)
(-0.0128797 2.98535 5.73694e-19)
(-0.0182447 2.89556 0)
(-0.0153474 2.98812 -1.82004e-18)
(-0.0133917 2.92525 6.29433e-19)
(-0.0266428 1.8135 0)
(-0.0217411 1.81122 0)
(0.000451891 1.60968 5.17629e-23)
(0.00115202 1.58426 0)
(-0.00545475 1.46415 0)
(0.935625 -0.00582764 0)
(0.854068 -0.00928092 0)
(0.863954 0.00871925 0)
(0.948504 -0.00694878 0)
(0.883877 -0.00801981 0)
(0.506426 1.12488 4.41381e-20)
(0.55848 1.18062 0)
(0.352454 0.866541 2.53743e-21)
(0.29575 0.728495 0)
(0.945947 1.09256 -2.86384e-19)
(1.05798 0.891832 5.86589e-19)
(0.396424 1.39904 0)
(0.557103 1.37874 0)
(0.559793 1.32768 0)
(0.0953559 0.141992 -1.18708e-19)
(0.496931 0.261173 0)
(0.4817 0.16173 1.05837e-19)
(1.0269 0.943755 0)
(1.09196 0.785657 0)
(1.11806 0.728155 -5.13608e-19)
(1.1464 0.622569 0)
(1.19793 0.4049 5.83673e-20)
(0.956867 -0.00885961 0)
(0.962123 -0.0101761 0)
(0.900854 -0.00810246 0)
(0.984225 -0.00911894 0)
(0.974557 -0.00935669 0)
(0.936856 -0.00622843 0)
(1.00019 0.00229298 0)
(1.00086 0.00132379 0)
(0.999923 0.00085862 0)
(-0.0160682 2.03072 1.68366e-19)
(0.116893 1.71484 0)
(-0.0604969 2.02962 5.93962e-20)
(-0.0108954 1.81212 -7.17442e-20)
(0.12643 1.19167 -5.52505e-19)
(0.0718371 1.03962 0)
(0.116593 1.03594 0)
(-0.011879 0.845033 0)
(-0.0268151 0.755939 0)
(0.0473927 1.72052 1.17775e-21)
(-0.032291 1.55871 0)
(0.0599761 1.71019 7.373e-20)
(0.00635153 1.51056 3.19158e-20)
(-0.045159 0.900827 0)
(-0.063097 1.0297 0)
(-0.0479238 0.848334 0)
(-0.0228254 1.3786 0)
(-0.0131769 1.2421 0)
(0.937854 0.0154434 0)
(0.871458 5.50735e-06 0)
(0.919995 0.0074662 0)
(0.839446 -0.00533562 0)
(0.809893 0.0050451 0)
(0.901752 0.0138184 0)
(0.882942 0.00987639 0)
(0.788368 0.00186388 0)
(0.00575079 3.06471 -5.83103e-21)
(0.0164492 3.05809 0)
(0.0146823 2.96914 0)
(0.00847849 2.87632 0)
(0.929491 3.98839 0)
(1.24517 3.31775 1.02022e-18)
(0.0713731 3.08319 0)
(-0.0264921 2.91145 0)
(-0.0258931 1.80206 0)
(-0.0274498 1.81345 0)
(-0.0242282 1.80597 0)
(-0.009949 1.83096 4.90295e-21)
(-0.0192317 1.82926 0)
(-0.015517 1.8264 0)
(-0.000138668 1.48551 -1.25476e-20)
(0.00765446 1.66973 -9.02876e-21)
(0.00314463 1.6385 4.67342e-21)
(-0.00546112 1.47186 0)
(0.624088 0.123549 2.68644e-19)
(0.557833 0.0232097 -2.61258e-19)
(0.266034 1.51925 0)
(0.262567 0.658198 -2.03889e-19)
(0.200566 1.61724 -6.92242e-19)
(0.239558 1.16565 6.94285e-19)
(0.90418 0.00691816 0)
(0.967902 0.0106667 0)
(0.97497 0.0105138 0)
(0.924638 0.006644 0)
(-0.0183667 1.43601 0)
(-0.0148124 1.46566 0)
(-0.008123 1.27396 0)
(0.384675 0.297795 3.62962e-19)
(0.326713 0.279979 -4.44151e-19)
(0.333642 0.216925 0)
(1.11877 0.0842696 -5.62314e-21)
(1.10422 0.0386526 0)
(1.03174 0.0382325 0)
(0.936117 0.00526507 0)
(0.649745 0.0926149 0)
(0.680518 0.0669477 -1.13368e-18)
(0.573664 0.00710826 4.34104e-19)
(0.00977532 2.98179 3.96809e-19)
(-0.0326913 2.8674 4.77418e-20)
(0.00381806 3.05016 -1.26276e-20)
(0.0199953 3.04355 4.55044e-19)
(-0.0150246 2.99655 2.0959e-20)
(-0.0130012 2.94946 -8.49088e-23)
(-0.01728 3.01199 -3.98579e-19)
(0.0148023 3.02402 2.88022e-19)
(0.0072926 3.03672 -4.49386e-19)
(0.923332 0.00133711 0)
(0.931941 -0.00165508 0)
(0.840054 -0.00730031 0)
(0.957406 0.0118094 0)
(0.943969 0.0134384 0)
(0.883321 0.0076993 0)
(0.917745 0.0141213 0)
(0.927487 0.0145568 0)
(0.8382 0.00789642 0)
(0.715236 1.41117 3.45126e-19)
(0.751256 1.52293 0)
(0.222391 0.367518 2.35064e-20)
(0.179513 0.581225 1.88408e-19)
(0.264842 0.687475 -1.02489e-19)
(0.226271 0.572208 1.86014e-19)
(0.285105 0.69381 6.87539e-19)
(0.105874 0.179372 2.04683e-19)
(0.558358 0.220771 -3.82797e-19)
(0.526602 0.241966 9.81147e-20)
(0.506206 0.143914 2.01063e-19)
(1.18696 0.461811 3.11705e-19)
(1.20409 0.256329 3.26506e-19)
(-0.0244233 1.99315 1.48553e-20)
(-0.0190488 1.76235 0)
(0.982762 0.0279112 0)
(0.950796 0.0186022 0)
(0.89675 -0.00176637 0)
(0.0110455 3.07469 0)
(0.0199193 2.94404 7.74686e-19)
(0.0165435 2.95646 0)
(0.00608877 2.8508 -7.68537e-19)
(0.0060238 3.09108 1.82962e-19)
(0.00739697 3.08254 0)
(0.78526 1.82877 -2.43937e-19)
(1.25219 2.51353 6.73275e-19)
(0.768333 1.97048 -1.50925e-18)
(0.021232 2.98428 -2.83269e-19)
(0.037334 3.00755 0)
(-0.0319583 2.88264 0)
(0.0486845 1.68705 1.44358e-20)
(0.0220924 1.7017 6.19976e-21)
(0.0206737 1.49854 -2.04356e-23)
(0.279048 1.33089 6.59177e-19)
(0.224408 0.442367 -4.5429e-19)
(0.0331214 1.95133 4.50968e-19)
(0.134012 1.83079 -5.67838e-19)
(0.200491 1.48438 8.33474e-20)
(0.00186721 3.11886 -1.07128e-18)
(0.0161782 3.11805 1.14795e-18)
(-0.0085839 2.98138 4.93184e-19)
(-0.00304134 2.97796 -4.32404e-19)
(-0.0212571 2.88222 -5.02293e-19)
(0.00884499 3.09992 -1.33869e-18)
(0.00260102 3.10578 1.30349e-18)
(0.219479 0.609905 0)
(0.168445 0.593174 -3.65516e-19)
(0.123835 0.202284 1.62654e-19)
(0.318265 0.817676 6.15654e-19)
(0.170725 0.221771 -9.4281e-19)
(1.20138 0.170832 -6.49912e-20)
(1.20402 0.308416 0)
(1.18979 0.119089 1.30005e-19)
(0.00078412 1.80422 1.95563e-21)
(-0.0403721 1.90198 0)
(-0.0358555 1.65878 0)
(0.328172 1.21226 -2.4078e-19)
(0.351044 1.0291 -5.104e-19)
(0.191838 0.31723 8.73519e-19)
(1.00583 -0.0110864 0)
(1.00759 -0.00763254 1.79355e-19)
(-0.0277069 1.79934 0)
(-0.0361562 1.8062 0)
(1.00218 0.00335385 1.59771e-21)
(1.00367 0.00932878 3.68891e-19)
(-0.0100172 1.83698 -6.64953e-21)
(-0.00494697 1.83679 0)
(0.0396808 3.18391 9.32209e-20)
(0.400655 3.50346 0)
(1.11562 0.645199 7.2368e-20)
(1.01294 0.0127398 -2.11951e-21)
(1.02136 -0.0105109 0)
(1.00172 -2.16993e-05 -3.01733e-23)
(0.155367 1.18566 0)
(0.174533 2.60984 0)
(-0.214866 1.37158 0)
(-0.192115 2.39075 -8.65218e-20)
(-0.103939 2.06981 5.41972e-20)
(1.00586 0.0106365 2.97144e-21)
(1.0483 0.0117434 0)
(1.07319 0.0301952 0)
(-0.0283035 1.81672 0)
(-0.0231835 1.87519 0)
(-0.0350118 1.76875 0)
(0.280938 1.44889 -4.59444e-19)
(1.01108 -0.00958487 0)
(1.00949 -0.0153522 0)
(1.00235 0.000390642 2.26045e-19)
(1.0055 -0.00499774 -2.69884e-19)
(1.00123 -0.00109515 0)
(-0.0339425 1.80784 0)
(-0.0295503 1.79702 0)
(-0.0299885 1.80284 0)
(-0.032297 1.77171 0)
(-0.0296381 1.77868 0)
(-0.031558 1.77701 0)
(1.03161 -0.0141301 0)
(1.0208 0.0167187 -9.6832e-22)
(0.783319 1.26673 5.38607e-19)
(1.00266 0.000231937 -2.28525e-19)
(1.00347 0.00550158 2.69044e-19)
(1.00129 0.00218423 0)
(1.01302 0.0101892 2.21279e-19)
(1.00827 0.00834302 -2.76165e-19)
(1.00861 0.0143319 0)
(-0.0209533 1.87347 0)
(-0.0115181 1.85355 5.2391e-21)
(-0.0103521 1.85398 -2.48498e-21)
(1.18844 0.254386 -1.11663e-19)
(1.1272 0.0898974 0)
(0.0535319 3.07772 -4.91052e-19)
(0.0685842 2.8508 -3.97823e-20)
(0.147693 3.19768 7.72182e-19)
(0.141754 3.22688 1.16106e-20)
(0.139873 3.243 0)
(0.0222914 3.13869 1.04024e-19)
(0.0811443 3.16237 4.78166e-19)
(0.0737535 3.1899 -2.01787e-19)
(0.0258728 3.12863 0)
(0.666893 0.327077 0)
(0.612342 0.367469 0)
(1.08839 0.671469 -2.72176e-19)
(1.08535 0.812544 -1.02463e-19)
(1.14561 0.561878 0)
(1.17648 0.504552 0)
(1.01588 0.0130587 -4.07894e-19)
(1.01436 0.0139228 -1.6018e-21)
(1.02513 -0.0104712 0)
(1.02321 -0.0118965 0)
(1.00672 0.0028513 0)
(1.01026 0.00325058 0)
(1.00503 0.00159782 0)
(1.00974 0.00562931 0)
(1.00836 0.00628218 0)
(1.00439 0.00479371 0)
(0.176207 1.18695 0)
(0.0978049 1.01078 0)
(0.22006 1.26716 0)
(0.143129 1.28567 0)
(0.165379 2.62203 0)
(0.208267 2.64919 -1.94866e-19)
(0.0770973 2.69447 0)
(0.0782069 2.6848 -3.40904e-20)
(-0.162719 2.67851 1.68875e-19)
(-0.174586 1.41651 0)
(-0.148477 1.4669 0)
(-0.22092 1.32918 0)
(-0.17879 1.19101 0)
(-0.40516 2.12351 1.31817e-19)
(-0.161075 2.17404 -2.83987e-21)
(-0.179979 2.37391 -5.63872e-20)
(-0.11475 2.25952 0)
(-0.0970116 2.06684 -9.47412e-20)
(-0.0643015 2.02185 -9.34547e-21)
(-0.423694 2.10171 -1.26425e-19)
(-0.269554 2.11815 3.70466e-21)
(-0.271847 2.2558 7.40323e-20)
(1.01565 0.0225658 4.02395e-19)
(1.01277 0.00858003 3.89541e-21)
(1.00766 0.0215645 -4.22479e-19)
(0.992087 0.0130188 5.3652e-19)
(1.04831 0.0123445 0)
(1.035 -0.00711802 0)
(1.07002 0.0393721 0)
(1.05471 0.0203767 0)
(1.05388 0.0140889 0)
(1.11057 0.0782903 0)
(1.08338 0.0479646 0)
(1.08705 0.0382814 0)
(-0.019195 1.84122 -1.43688e-21)
(-0.0301485 1.83141 0)
(-0.0228765 1.83126 0)
(-0.0368241 1.90109 9.49631e-21)
(-0.0310584 1.90943 -2.0158e-22)
(-0.0508993 1.81565 9.47661e-21)
(-0.0394973 1.81009 -9.57686e-21)
(-0.0444392 1.786 0)
(-0.0378777 1.79662 0)
(-0.0375586 1.79654 0)
(-0.0481706 1.75406 0)
(-0.0337921 1.71737 0)
(0.383581 1.47289 8.85911e-19)
(0.409027 1.48065 3.47891e-19)
(0.580312 2.42596 -1.47796e-19)
(0.397943 2.51322 4.18917e-19)
(0.339375 2.08632 -4.04459e-20)
(1.02072 -0.00840427 0)
(1.01511 -0.00978473 0)
(1.01494 -0.0158453 0)
(1.00731 -0.00115343 0)
(1.00467 -0.00158065 0)
(1.00744 -0.00474947 0)
(1.0096 -0.00403514 0)
(1.01351 -0.00448771 0)
(1.02238 0.0169525 3.84692e-19)
(1.01729 0.0160004 -4.94554e-19)
(1.02373 0.0209587 -3.93308e-19)
(1.01709 0.0217388 4.92914e-19)
(0.758413 1.31234 0)
(0.688309 1.37174 6.42048e-19)
(0.858761 1.20422 3.76215e-19)
(0.899876 1.16085 -5.00332e-19)
(1.14689 2.61508 -5.93046e-19)
(0.835335 0.110392 2.73927e-19)
(1.12658 0.0998187 0)
(1.17266 0.179165 9.48721e-20)
(1.15917 0.156721 4.13559e-21)
(0.979573 0.122657 0)
(0.148518 2.96756 1.03843e-19)
(0.126012 2.87346 -6.32945e-19)
(0.0389922 2.35475 4.62473e-19)
(0.10391 0.103396 -1.92593e-19)
(0.345013 3.43147 -4.56755e-19)
(0.198948 3.32233 0)
(0.240373 3.36716 5.94839e-19)
(0.256054 3.04096 -6.80521e-19)
(0.350395 3.20054 0)
(0.00738737 3.12072 2.50363e-20)
(0.0173299 3.12979 -3.23541e-19)
(0.0157692 3.12567 4.76207e-19)
(0.0383084 3.14014 0)
(0.0370719 3.15176 0)
(1.21338 2.61786 0)
(0.50695 0.853328 -2.1684e-19)
(1.01685 0.99039 -2.13831e-19)
(0.95294 1.05342 0)
(0.796657 0.950387 6.42527e-20)
(1.03795 0.861092 3.07758e-20)
(0.407865 0.463985 -5.19389e-19)
(0.702983 0.33612 -2.23732e-20)
(0.688533 0.279177 2.11049e-19)
(0.621549 0.401893 1.70401e-20)
(0.55936 0.392807 -7.03229e-19)
(0.678484 0.35838 0)
(0.714498 0.421597 3.40036e-19)
(0.711825 0.419035 0)
(0.649695 0.384795 0)
(0.631517 0.328861 0)
(0.759266 0.58735 1.14646e-19)
(1.1873 0.270344 -5.43713e-20)
(1.18318 0.401755 0)
(1.19509 0.357128 0)
(0.76475 0.203965 3.19072e-19)
(0.815944 0.514814 -1.71953e-19)
(0.736897 0.490443 -2.76895e-19)
(0.912989 0.416073 -2.51654e-19)
(1.01942 0.0144887 2.66367e-19)
(1.01753 0.0138277 -2.74723e-19)
(1.01461 0.0157933 0)
(1.03335 -0.0111077 0)
(1.02884 -0.00962891 -2.44113e-19)
(1.02593 -0.0138828 2.41387e-19)
(1.02678 0.00742108 0)
(1.02502 0.0137971 0)
(1.01146 0.00427415 0)
(1.01427 0.00902879 0)
(1.01532 0.00390568 0)
(1.01372 0.00203118 0)
(0.0678281 1.00239 0)
(-0.0281155 0.969069 0)
(0.321922 1.31082 4.72213e-19)
(0.272836 1.44851 2.68614e-19)
(0.19971 1.40643 6.01493e-19)
(0.211647 1.40918 -3.15319e-19)
(0.284878 1.38744 0)
(0.29452 1.63827 3.01682e-19)
(0.320293 1.65471 0)
(0.335385 2.03499 5.87324e-20)
(0.33701 2.38593 2.07822e-19)
(0.306748 1.47063 -2.73964e-19)
(0.267387 1.40916 2.02659e-19)
(0.284496 1.37101 1.63964e-19)
(0.272994 1.35109 3.40091e-19)
(0.211518 1.60393 -2.05064e-19)
(0.301032 1.61589 -2.13963e-19)
(-0.151221 2.56404 2.22113e-19)
(-0.125798 2.7175 0)
(0.0469912 2.57484 -4.01992e-19)
(-0.0453539 2.639 0)
(-0.00198197 2.75716 3.75674e-20)
(-0.0902254 2.72995 0)
(-0.380291 1.61847 2.21856e-19)
(-0.461261 1.74003 0)
(-0.313302 1.42051 0)
(-0.325184 1.43743 -2.50184e-19)
(-0.221719 2.51769 -8.12918e-20)
(-0.17165 2.66945 -2.14993e-19)
(-0.171207 2.601 -1.46383e-21)
(-0.300667 1.94853 -4.67548e-21)
(-0.370214 1.92627 4.29514e-20)
(-0.124938 1.53489 0)
(-0.0861648 1.5656 0)
(-0.362929 1.86703 -5.60653e-19)
(-0.318271 1.4523 -5.36704e-19)
(-0.376766 1.70526 6.76313e-19)
(-0.13211 1.80518 0)
(-0.0642768 1.86289 -3.08332e-20)
(-0.0592917 1.89083 1.14068e-20)
(-0.0709723 1.90347 -3.96792e-21)
(-0.246916 1.88689 5.6693e-21)
(-0.110293 1.96941 -5.98343e-21)
(-0.133013 2.01028 4.62397e-20)
(1.02061 0.0229712 -2.61834e-19)
(1.0199 0.0207453 2.61527e-19)
(1.0151 0.018873 0)
(1.00349 0.0474113 3.82915e-19)
(0.993415 0.0340154 -4.51799e-19)
(0.966034 0.0224564 5.25711e-19)
(1.00397 0.0809438 -4.9552e-20)
(1.0359 -0.0134602 0)
(1.03749 -0.00478108 2.15709e-19)
(1.02866 -0.0205891 -2.18261e-19)
(1.0543 0.0434819 -1.17344e-20)
(1.05401 0.0281674 1.05499e-19)
(1.05165 0.0504621 0)
(1.04333 0.0435584 -3.97158e-20)
(1.03728 0.0273465 0)
(1.03236 0.0211803 0)
(1.03082 0.0103809 0)
(1.02886 0.0150483 0)
(1.04463 0.0262367 8.24832e-20)
(1.04608 0.0194884 -1.87812e-19)
(1.04672 0.030065 -8.27956e-20)
(1.04439 0.0295527 -9.66991e-20)
(1.05133 0.0561956 1.71273e-19)
(1.07529 0.0501444 0)
(1.07726 0.0935266 0)
(-0.0570474 1.86111 -1.1002e-20)
(-0.0349549 1.83464 -1.41917e-21)
(-0.04367 1.84118 0)
(-0.0355091 1.86096 1.10183e-20)
(-0.0229042 1.8449 2.73305e-21)
(-0.0253986 1.85288 -2.36037e-21)
(-0.0561516 2.00104 3.24095e-21)
(-0.0763748 1.92827 -1.53905e-21)
(-0.0882091 1.9466 8.28153e-21)
(-0.0428371 1.9481 -6.82865e-21)
(-0.0427793 1.96085 -1.73202e-21)
(-0.0644732 1.79817 1.8057e-22)
(-0.0658231 1.81814 1.36666e-20)
(0.393153 1.4041 -4.42652e-19)
(0.350203 1.39062 -4.33719e-19)
(0.643487 1.41658 -6.18123e-19)
(0.520033 1.47685 -3.353e-19)
(0.557863 1.45327 0)
(0.583806 2.39758 1.19863e-19)
(0.652327 2.38346 2.19049e-19)
(0.41177 2.48335 7.90055e-20)
(0.408909 2.54915 -1.34019e-19)
(0.516689 2.51495 2.56746e-19)
(0.534879 2.43756 0)
(0.486407 2.4746 -3.47416e-19)
(0.276771 2.54876 5.8481e-19)
(0.358827 2.52052 -7.50036e-20)
(0.302863 2.61065 -9.14063e-19)
(0.921719 2.37476 1.78704e-19)
(0.824 2.36587 0)
(1.0107 0.00048078 8.94022e-21)
(1.01595 -0.00553105 -7.45392e-21)
(1.01745 -0.00413913 -1.32747e-19)
(1.01514 -0.000354864 1.32787e-19)
(1.01237 0.000953277 0)
(0.625438 1.25581 0)
(0.623297 1.17245 0)
(0.729971 1.08103 0)
(0.617637 1.12818 0)
(1.17697 2.63192 5.71586e-20)
(1.06105 2.3636 0)
(0.835908 2.2289 -1.87612e-21)
(0.834516 2.48401 0)
(0.923233 2.56384 3.3419e-20)
(0.956738 2.51612 0)
(0.842189 0.14611 0)
(0.812407 0.152358 7.90154e-20)
(0.927147 0.126743 3.96784e-19)
(0.866329 0.117441 -1.61237e-19)
(0.854411 0.0676797 -4.85044e-19)
(1.03082 0.211598 -2.05736e-19)
(0.953618 0.274883 -1.59536e-20)
(0.896995 0.271804 3.60427e-19)
(0.966275 0.197066 2.63247e-19)
(0.933997 0.15906 -4.94866e-19)
(0.909466 0.173653 6.4453e-20)
(0.933884 0.234985 -1.2443e-19)
(0.911088 0.193322 0)
(0.96951 0.159494 -2.35615e-19)
(1.00654 0.162171 0)
(1.00446 0.188132 0)
(1.07071 0.108017 7.055e-20)
(1.03043 0.152366 -1.30751e-20)
(1.02481 0.214795 -1.07789e-19)
(1.06092 0.187448 0)
(1.02179 0.0266815 1.99651e-19)
(1.03805 0.0467183 2.34567e-19)
(1.03603 0.032074 -1.98115e-19)
(1.03422 0.0506312 -1.57885e-19)
(1.01428 0.0526237 -2.69522e-19)
(0.975671 0.123562 0)
(0.982854 0.0758039 0)
(0.969453 0.0437108 -1.89815e-19)
(0.936475 0.0577973 8.0208e-20)
(1.02038 0.081096 2.2339e-19)
(1.03624 0.10978 -2.18712e-19)
(1.03906 0.133276 2.00358e-19)
(1.00299 0.123208 0)
(1.04577 0.0967328 0)
(1.03282 0.0789439 -9.193e-20)
(1.03101 0.0796456 -1.78074e-19)
(0.561805 1.07431 -1.06818e-19)
(0.609401 1.45054 2.07117e-19)
(1.15147 2.76269 1.21686e-19)
(1.22091 3.0987 -7.53297e-20)
(1.24242 2.73448 5.98676e-19)
(1.27578 2.71853 -3.56205e-19)
(1.20132 2.35093 -7.8476e-21)
(1.20645 3.00195 2.12302e-19)
(1.22394 2.96659 -2.42736e-19)
(1.21348 3.25203 -2.76319e-19)
(1.37632 2.98248 3.82699e-19)
(1.36963 2.89887 0)
(0.511252 0.860477 -1.06028e-20)
(0.16119 1.29215 3.5956e-19)
(0.525212 0.538485 3.43319e-19)
(0.357536 0.308376 3.73119e-19)
(0.565748 0.42602 3.93587e-19)
(0.564171 0.49195 -6.25096e-19)
(0.562031 0.514299 5.14189e-19)
(0.526587 0.462875 -2.06234e-19)
(0.481273 0.401641 4.73663e-19)
(0.769368 0.263494 5.47521e-19)
(0.732188 0.301598 0)
(0.719587 0.252377 1.00496e-20)
(0.73008 0.508464 1.79518e-19)
(0.704451 0.468825 -6.62216e-19)
(0.62926 0.488378 1.9319e-20)
(0.644913 0.459381 0)
(0.632303 0.734783 1.36723e-19)
(0.779474 0.753899 3.78428e-20)
(0.709562 0.841201 -5.30895e-20)
(0.827839 0.789787 -9.77993e-21)
(0.866112 0.830348 1.66988e-20)
(0.874828 0.833969 -1.70967e-20)
(0.799265 0.620383 -1.96647e-19)
(0.87527 0.680991 9.09068e-21)
(0.936695 0.695123 0)
(0.924572 0.669885 -5.25631e-21)
(0.98016 0.311624 5.30228e-20)
(1.09286 0.277747 -1.17181e-20)
(1.01619 0.246256 8.39947e-20)
(0.965311 0.347794 -1.2563e-19)
(1.01538 0.40427 0)
(1.05342 0.392078 0)
(0.886152 0.35586 5.57008e-21)
(0.819118 0.289447 0)
(0.842284 0.274501 1.88795e-19)
(0.877792 0.281237 -6.31299e-21)
(0.906662 0.417926 6.85285e-19)
(0.86614 0.469601 1.73692e-19)
(0.874499 0.439254 -2.2902e-19)
(0.806791 0.423251 -2.45265e-19)
(0.793647 0.420342 1.70294e-19)
(0.762773 0.407074 -1.6757e-19)
(1.02781 -0.00377471 2.12698e-19)
(1.01971 -0.000956715 0)
(1.01824 -4.5547e-05 1.41211e-19)
(1.02231 -0.00136478 -3.07329e-21)
(1.02145 0.00281376 1.5315e-19)
(1.0209 0.0101146 -3.22207e-19)
(1.02215 0.00952071 0)
(1.0208 0.0105747 -6.80532e-20)
(1.01645 0.00721037 1.70929e-19)
(1.01693 0.0102448 -8.58637e-20)
(1.01752 0.00940507 6.27738e-20)
(-0.198881 1.18228 0)
(-0.292835 1.36651 0)
(-0.108636 1.0651 0)
(-0.110507 1.02312 0)
(0.186131 1.3206 -1.17622e-18)
(0.242671 1.21299 3.96496e-19)
(0.299071 1.6331 2.54724e-19)
(0.308313 1.28721 -2.19818e-19)
(-0.225496 1.47443 7.75151e-19)
(-0.181975 1.4807 -5.82578e-19)
(0.065824 1.21901 3.84726e-20)
(-0.0053735 1.1985 -9.05598e-19)
(-0.108153 1.18769 9.31013e-20)
(-0.220561 1.28654 -8.34584e-20)
(0.128354 2.54517 4.34072e-19)
(0.124776 2.53612 0)
(0.24659 2.16549 -4.20759e-20)
(0.257276 1.80316 -1.47595e-19)
(0.277074 2.07228 2.67683e-20)
(0.240627 2.44311 0)
(0.28318 2.39932 -1.17073e-19)
(0.323883 2.40429 8.32126e-20)
(0.273445 2.01859 1.19196e-19)
(0.222419 2.22748 1.6541e-20)
(0.169326 2.36656 0)
(-0.360383 2.25756 6.0919e-19)
(-0.341342 2.43523 3.34496e-19)
(-0.406319 2.29808 0)
(-0.252919 2.57215 -6.4879e-21)
(-0.231811 2.52602 -3.00113e-19)
(-0.305528 1.58754 -1.37718e-20)
(-0.21386 1.61987 2.12611e-19)
(-0.220287 1.68067 -5.74962e-20)
(-0.326613 1.67071 -7.56073e-20)
(-0.369231 1.61867 0)
(-0.19284 1.68209 0)
(-0.0674187 1.70365 7.18125e-22)
(-0.11155 1.73052 6.20807e-22)
(-0.143144 1.70118 0)
(-0.0887312 1.62976 -2.05806e-21)
(-0.0463934 1.64941 5.33504e-22)
(1.03541 0.000566266 0)
(1.04273 0.00195808 -2.04735e-20)
(1.04773 0.0158357 -1.48699e-19)
(1.04841 0.0160419 0)
(1.0487 0.0158253 0)
(1.04432 0.0044337 -6.7762e-21)
(1.03804 0.00371446 2.48737e-19)
(1.04022 0.0116549 2.99657e-19)
(1.03014 0.0178523 0)
(1.02951 0.0174986 0)
(1.04291 0.0198556 1.50041e-19)
(1.03391 0.0171283 0)
(1.03185 0.016504 0)
(-0.117669 1.8643 0)
(-0.0851521 1.81552 1.87352e-21)
(-0.0967115 1.85312 7.31758e-21)
(-0.0867196 1.74204 0)
(-0.10572 1.79842 2.38283e-21)
(-0.0808422 1.78562 -5.24961e-21)
(-0.0758874 1.77167 0)
(0.389648 1.70481 0)
(0.348185 1.31431 6.88901e-19)
(0.278233 1.37264 0)
(0.427629 1.27292 -4.78657e-19)
(0.486283 1.43223 0)
(0.437507 1.38441 4.17813e-19)
(1.02591 2.70134 -3.44481e-21)
(0.947465 2.40723 -2.37338e-19)
(0.874875 2.14725 3.02908e-19)
(0.846814 2.35969 1.23611e-19)
(0.848829 2.52292 0)
(0.90819 2.51284 0)
(0.882096 2.37448 0)
(0.917924 2.32863 -4.36243e-19)
(0.691862 2.50563 9.16429e-21)
(0.812694 2.49244 -6.95786e-21)
(0.822805 2.46675 5.31617e-21)
(0.683959 2.364 0)
(0.79005 2.36485 0)
(0.749201 2.37326 -2.21916e-19)
(0.775425 2.51121 0)
(0.577655 1.08557 0)
(0.474226 0.92682 3.09443e-20)
(0.517607 0.957647 6.53362e-22)
(0.5004 1.0495 0)
(0.502104 1.00517 -4.38449e-20)
(0.732461 0.867797 2.22195e-20)
(0.756299 1.00146 0)
(0.728441 0.959911 -7.74487e-20)
(0.608594 1.02543 0)
(0.615821 0.934282 0)
(1.15664 2.77916 7.01606e-20)
(1.13439 2.8448 1.33397e-19)
(0.925883 2.37307 -3.00507e-19)
(0.892793 2.34576 3.50093e-20)
(1.11971 2.74792 0)
(1.07173 2.71744 -4.78282e-20)
(1.07603 2.48903 -6.21856e-20)
(0.968472 2.22132 -2.93985e-20)
(0.489276 1.36841 0)
(0.491074 1.06783 9.41298e-20)
(0.546393 1.14978 0)
(0.858716 0.212654 0)
(0.822516 0.170091 0)
(0.779566 0.154674 0)
(0.848524 0.218166 -2.96414e-19)
(0.795629 0.214419 1.85862e-19)
(0.941441 0.0521896 -1.65384e-19)
(0.950834 0.101604 0)
(0.924795 0.103652 7.49244e-20)
(0.887782 0.0799422 3.08364e-19)
(0.882449 0.0488921 -1.89225e-19)
(1.16526 3.37717 -9.99472e-19)
(1.21039 3.29704 0)
(1.16616 3.40327 -1.96484e-18)
(0.65324 3.56389 1.68737e-18)
(0.880099 3.12902 4.03141e-19)
(0.495178 0.880943 1.96155e-19)
(0.429161 0.865093 0)
(0.355928 0.563423 -7.93262e-20)
(0.429278 0.70174 -3.51725e-19)
(0.528047 0.538099 -1.07441e-19)
(0.512826 0.56141 1.22666e-19)
(0.66148 0.533956 2.56705e-19)
(0.685105 0.536814 0)
(0.62396 0.635603 0)
(0.586519 0.5653 0)
(0.931962 0.579454 -5.88147e-20)
(0.864922 0.517672 -1.67877e-19)
(0.885923 0.549901 7.03712e-20)
(0.923791 0.491334 -1.21388e-19)
(1.01641 0.469566 0)
(1.02949 0.554912 -6.0204e-22)
(0.82679 0.383765 -3.74687e-19)
(0.825636 0.368985 5.6486e-19)
(0.778747 0.38029 2.94863e-19)
(0.772852 0.350425 -3.36449e-19)
(0.819514 0.314478 -2.49781e-19)
(0.779425 0.311932 3.06648e-19)
(1.02679 0.00295095 -1.57419e-19)
(1.02707 0.00240024 3.20093e-19)
(1.0287 -0.00414734 2.01661e-19)
(1.0315 -0.00605419 -2.42876e-19)
(1.03623 -0.00153272 0)
(1.03384 -9.78546e-05 -3.90408e-19)
(-0.0309554 1.93765 -1.46492e-19)
(-0.025282 1.80099 0)
(0.221769 1.81711 -8.7484e-19)
(0.24048 1.82662 7.60705e-19)
(0.268863 1.66579 -4.7995e-19)
(0.190023 1.67205 0)
(-0.213768 1.87876 0)
(-0.193976 1.75713 1.58549e-21)
(-0.146151 1.75814 -1.43564e-21)
(-0.126868 1.79641 5.92924e-21)
(-0.13902 1.87314 -7.76895e-21)
(-0.160975 1.8761 -2.26943e-20)
(0.497909 1.37773 4.63206e-19)
(0.501958 1.38499 5.3775e-19)
(0.443996 1.27522 4.55843e-19)
(0.431686 1.29069 -2.86026e-20)
(0.613858 1.29698 0)
(0.546749 1.36637 5.70064e-19)
(0.557447 1.37262 -5.51254e-19)
(0.457526 1.25756 -4.35544e-19)
(0.502304 1.21811 0)
(0.553472 1.18815 0)
(0.651407 2.45949 -1.35164e-20)
(0.672697 2.47766 4.92339e-19)
(0.717193 2.49758 -3.37707e-19)
(0.620464 2.48624 -1.16592e-19)
(0.553966 2.57567 9.4469e-20)
(0.514315 2.54798 -2.87306e-19)
(0.960635 2.36265 -1.63352e-19)
(1.00204 2.38807 0)
(0.893109 2.13214 -2.23356e-19)
(1.04057 2.69856 0)
(1.039 2.68323 0)
(0.62367 2.29758 2.70507e-19)
(1.04384 3.17892 5.06437e-19)
(0.915983 3.04834 -4.59664e-19)
(0.294352 0.976282 0)
(0.347207 0.847879 -1.41041e-19)
(0.492101 0.791813 -4.68491e-19)
(0.412244 2.05115 0)
(0.474224 2.79588 -2.80621e-19)
(0.437499 2.56211 0)
(0.645183 0.67905 -2.8193e-19)
(0.717663 0.656533 3.57451e-19)
(0.751364 0.602354 2.5648e-19)
(0.643249 0.640716 4.29213e-20)
(0.709044 0.584813 -1.75115e-19)
(1.00362 2.78673 -3.8498e-19)
(1.03516 2.84334 3.14368e-19)
(0.654131 2.20174 2.45955e-21)
(0.601711 1.73986 -3.55306e-20)
(0.698976 1.93335 1.44918e-19)
(0.986777 2.4697 -6.52045e-20)
(0.988226 2.47271 -1.9047e-19)
(0.675787 1.88742 -7.32802e-21)
(0.451606 1.35146 -1.5974e-19)
)
;

boundaryField
{
    wall-4
    {
        type            noSlip;
    }
    velocity-inlet-5
    {
        type            fixedValue;
        value           uniform (1 0 0);
    }
    velocity-inlet-6
    {
        type            fixedValue;
        value           uniform (0 3 0);
    }
    pressure-outlet-7
    {
        type            zeroGradient;
    }
    wall-8
    {
        type            noSlip;
    }
    frontAndBackPlanes
    {
        type            empty;
    }
}


// ************************************************************************* //
