/*--------------------------------*- C++ -*----------------------------------*\
| =========                 |                                                 |
| \\      /  F ield         | OpenFOAM: The Open Source CFD Toolbox           |
|  \\    /   O peration     | Version:  2412                                  |
|   \\  /    A nd           | Website:  www.openfoam.com                      |
|    \\/     M anipulation  |                                                 |
\*---------------------------------------------------------------------------*/
FoamFile
{
    version     2.0;
    format      ascii;
    arch        "LSB;label=32;scalar=64";
    class       volScalarField;
    location    "24";
    object      p;
}
// * * * * * * * * * * * * * * * * * * * * * * * * * * * * * * * * * * * * * //

dimensions      [0 2 -2 0 0 0 0];

internalField   nonuniform List<scalar> 
918
(
0.228556
0.90492
0.0117705
0.227861
-0.00631436
0.872
-0.832622
0.404238
0.208651
-0.419816
-0.37662
0.19992
0.732665
0.500652
-1.45952
-0.0835772
0.358641
-0.710012
0.207585
-0.0135578
0.465637
0.215282
0.218322
0.208914
0.269779
0.485651
0.61363
0.0117023
0.00213505
0.00134573
-0.0039323
-0.0292782
-0.0335558
0.755618
0.806736
0.829413
0.177553
0.00186487
-0.685731
-0.75982
-0.748427
-0.87961
0.395728
0.400213
-0.492354
0.405146
0.418422
0.196062
0.207972
0.208889
0.210046
0.208952
0.21036
0.108719
-0.426945
-0.464974
-0.406644
-0.407777
-0.207016
-0.412431
-0.423279
-0.356204
-0.309145
0.131728
0.196978
0.193705
0.204331
0.213245
0.844471
0.816352
0.842496
0.756318
0.772752
0.710592
0.683134
0.519896
0.54144
0.487401
0.474659
-1.90354
-2.87777
-0.857292
-0.598984
-0.000580359
-0.109616
-0.128861
0.347718
0.351944
0.356963
0.371841
0.756605
-0.70346
-0.849429
0.207695
0.206507
0.215006
0.215701
0.211704
0.210812
-0.0230028
-0.0507505
-0.0109323
-0.00286462
-0.0109387
0.449975
0.444069
0.209476
0.206524
0.22092
0.24331
0.232583
-0.0258402
0.278438
0.297989
0.298792
0.470048
0.467304
0.474779
0.587161
0.551155
0.650639
0.673815
0.00286786
0.00319928
-0.0728732
-0.0405214
-0.0519364
0.173869
0.167071
0.191591
0.180792
0.18303
-0.0826008
-0.218499
0.0867267
0.109781
-0.593934
-0.65989
-0.767743
-0.782517
-0.890259
0.238942
0.386394
0.389456
-0.508839
-0.427898
-0.570304
-0.3537
-0.420868
0.186476
0.193403
0.18846
0.203734
0.198281
0.200234
0.212261
0.209333
0.210892
0.166582
0.287201
0.0385426
0.0148529
-0.569794
-0.476292
-0.558211
-0.398563
-0.402747
-0.205896
-0.185138
-0.22508
-0.250019
-0.41623
-0.430538
-0.42093
-0.265736
-0.205992
0.124545
0.115041
0.142775
0.149282
0.188732
0.189806
0.191787
0.190704
0.63376
0.656195
0.663761
0.637411
-3.89118
-6.71894
-0.265267
-0.123111
-0.000304872
0.00304537
0.00156408
0.00861411
0.00202614
-0.00190288
-0.262116
-0.243338
-0.166934
-0.195615
0.333742
0.335486
0.671576
0.662893
0.657697
0.607433
0.195869
0.198022
0.203494
0.199344
-0.15457
-0.0815432
-0.112875
0.416385
0.433043
0.429771
-0.0611685
-0.146819
0.0202537
0.0474688
0.319769
0.302751
0.31947
0.362106
0.400371
0.681276
0.699641
0.69781
0.706271
0.750219
0.766555
0.732032
0.154456
0.16433
0.159269
0.194996
0.192493
0.193631
0.188673
0.190338
0.187848
-0.372291
-0.759701
0.168595
0.191577
0.154214
0.170051
0.3163
0.391316
0.368636
0.379858
0.381238
-0.287602
-0.350011
-0.0350112
-0.0695975
0.0725355
0.104362
0.0875577
0.605047
0.565314
0.615376
0.588655
0.549875
0.575839
-0.711388
-2.24129
-1.34316
0.239583
0.046542
0.137385
-0.252729
-0.297822
-0.289984
0.646973
0.727023
0.345345
0.505129
0.519035
0.43726
0.46755
0.525298
0.451932
0.485969
0.519479
0.498104
0.199496
0.17494
0.169421
0.463848
0.518352
-0.174188
-0.226103
-0.276469
-0.16781
-0.1364
-0.144476
0.696328
0.579479
0.656957
0.206262
0.20694
0.00224968
-0.000721958
0.211025
0.211102
0.00183517
-0.0127624
0.118443
-1.17049
-0.185465
0.199366
0.189956
0.206579
-0.414427
0.0684546
-0.429685
-0.308117
-0.30099
0.196902
0.141219
0.107175
0.00686062
-0.0514792
-0.043959
-0.519788
0.203908
0.202242
0.20608
0.207107
0.207757
0.00322247
-0.00193376
0.000976717
-0.0259696
-0.00712243
-0.00421173
0.171956
0.188042
-0.480322
0.206247
0.20838
0.208208
0.201178
0.207024
0.205126
-0.0415745
-0.0247875
-0.0567019
-0.0748881
0.0410627
0.372108
0.474687
0.331595
0.102221
-0.141473
0.26859
0.336315
0.235435
0.39916
0.374985
0.393749
-0.125217
-0.272418
-0.116785
-0.170975
0.197402
0.196056
0.188149
0.185273
0.201499
0.199556
0.204165
0.200949
0.204003
0.205434
-0.357647
-0.395471
-0.400018
-0.465253
0.0284439
0.281373
-0.0356341
-0.00755372
-0.144715
-0.438619
-0.374743
-0.456663
-0.446036
-0.538729
-0.321759
-0.32754
-0.289685
-0.261909
-0.381912
-0.540347
-0.408269
-0.417953
0.191155
0.190026
0.196662
0.203499
0.149878
0.152854
0.12317
0.140607
0.12643
0.0730013
0.105983
0.0829495
0.00264348
0.0108085
0.00468461
-0.0602162
-0.131462
-0.0188143
0.00113473
0.00830797
-0.0129803
-0.016558
-0.0637324
-0.0818813
-0.481316
-0.59704
0.652308
0.603666
-0.208369
0.193118
0.199548
0.196349
0.201098
0.204162
0.204979
0.202784
0.199409
0.188756
0.190642
0.186548
0.187012
-0.42417
-0.559204
-0.380778
-0.447491
-0.19232
0.309508
0.0536704
-0.00535047
-0.00997843
0.20347
0.605739
0.409684
0.424982
0.450216
-0.669245
-0.266794
-0.599556
0.0216524
-0.158621
0.37009
0.420813
0.44312
0.390213
0.340398
-0.445364
0.211294
-0.366474
-0.323292
-0.133903
-0.236997
0.412807
0.359097
0.367391
0.382268
0.40266
0.364229
0.342318
0.340113
0.376352
0.381344
0.176115
-0.0428467
-0.0881609
-0.12458
0.341057
0.216335
0.271557
0.188883
0.192219
0.195083
0.193631
0.176882
0.183855
0.179857
0.185057
0.18792
0.197334
0.197753
0.193018
0.195426
-0.386404
-0.381938
-0.3378
-0.443576
-0.436747
-0.485068
-0.381131
-0.232916
-0.259984
-0.0910483
0.025654
-0.266006
-0.386368
-0.353044
-0.326354
-0.139806
-0.123185
-0.22408
-0.140883
-0.12446
-0.148181
-0.0429618
-0.049075
-0.534078
-0.528334
-0.460433
-0.489311
-0.321207
-0.222814
-0.198357
-0.423218
-0.591612
-0.344771
-0.263848
-0.388684
-0.426792
-0.462058
-0.34782
-0.0469223
-0.0575902
-0.106031
-0.304224
-0.22291
-0.285023
0.186981
0.188293
0.188369
0.200108
0.211365
0.226522
0.192959
0.169764
0.161902
0.164908
0.140089
0.149311
0.14496
0.157599
0.177061
0.18332
0.183284
0.185224
0.170187
0.170978
0.159599
0.162885
0.140583
0.123743
0.113022
-0.0272543
-0.0106875
-0.0217423
-0.0442567
-0.000338249
-0.0140203
-0.240176
-0.12068
-0.168143
-0.144642
-0.257574
-0.00648182
-0.0225403
-0.394186
-0.318138
-0.508977
-0.536312
-0.607549
0.562297
0.671142
0.495837
0.280458
0.284352
0.508243
0.606479
0.244215
0.413081
0.444201
0.211632
0.486791
0.198036
0.197438
0.194993
0.194509
0.196036
-0.340411
-0.243136
-0.224863
-0.176232
-0.0621271
0.0526613
-0.0415798
-0.164859
-0.0244888
-0.0137585
0.304455
0.320965
0.265195
0.290538
0.290185
0.116588
0.191742
0.246491
0.201844
0.245772
0.267783
0.228487
0.258412
0.2062
0.164467
0.163456
0.11072
0.130854
0.108824
0.0913123
0.188121
0.166897
0.176682
0.168802
0.188403
0.216069
0.211671
0.236529
0.248755
0.173729
0.136599
0.145373
0.172106
0.134887
0.147445
0.16165
-0.123172
-0.220315
-0.133851
-0.428578
-0.33789
-0.353579
-0.399436
-0.361401
-0.0742851
-0.778476
-0.745888
-1.38409
0.145828
0.632294
0.36991
0.343264
0.401031
0.377947
0.381772
0.410802
0.41732
0.332525
0.35229
0.354346
0.302828
0.329107
0.35724
0.354443
0.185304
0.0673705
0.058291
0.0204976
-0.0995827
-0.0691518
0.131231
0.0545731
-0.016168
-0.0112294
0.151782
0.0440615
0.107808
0.145443
0.079861
0.0375668
0.233116
0.301058
0.290843
0.266114
0.181054
0.192181
0.218815
0.255002
0.281064
0.316024
0.184803
0.190299
0.191565
0.189277
0.186755
0.189497
0.189418
0.19194
0.192891
0.195755
0.194656
-0.441821
-0.446608
-0.381847
-0.414233
-0.321366
-0.31854
-0.270114
-0.290225
-0.356603
-0.339913
-0.34909
-0.37059
-0.379228
-0.37564
-0.187397
-0.175782
-0.217525
-0.249828
-0.0646353
0.0596545
0.121635
0.0135234
-0.0976569
-0.0761531
-0.0415204
-0.369594
-0.37594
-0.44368
-0.328028
-0.292145
-0.473721
-0.40562
-0.409949
-0.564708
-0.507748
-0.303706
-0.122142
-0.151352
-0.212988
-0.202401
-0.147264
0.171907
0.166325
0.16715
0.161939
0.161136
0.173634
0.177733
0.179598
0.184245
0.185644
0.1777
0.181698
0.185013
-0.146121
-0.0386759
-0.074415
-0.123179
-0.0694889
-0.0370623
-0.0645935
-0.211582
-0.281625
-0.273647
-0.324109
-0.443092
-0.388616
0.133821
0.122956
0.14085
0.359593
0.213969
0.128472
0.215092
0.320143
-0.0668502
0.12922
-0.0394674
0.536513
0.424854
0.564651
0.201751
-0.1054
0.0437825
0.0990238
-0.100292
-0.0271335
-0.00241549
-0.112542
-0.0814865
-0.053513
0.0475727
-0.076874
-0.106625
-0.353263
-0.171624
-0.0375285
-0.0588431
0.0713194
0.135019
-0.0937356
-0.169623
-0.20875
0.294607
0.315433
0.333596
0.303115
0.326336
0.250627
0.241518
0.260359
0.270707
0.264155
-1.11366
-0.823846
-1.76391
-1.07101
-0.626504
0.177932
0.131518
0.429127
0.315355
0.395356
0.376687
0.332635
0.295153
0.305313
0.342527
0.0444375
0.15173
0.126079
0.134546
0.0391576
-0.0282837
0.269217
0.26276
0.299642
0.324097
0.29129
0.325047
0.182965
0.182518
0.181605
0.178633
0.176809
0.17903
-0.249514
-0.30302
-0.23951
-0.250292
-0.271407
-0.30252
-0.239859
-0.238114
-0.174139
-0.165815
-0.151774
-0.216189
-0.185406
-0.239445
-0.306343
-0.278251
-0.336543
-0.399995
-0.422242
-0.321195
-0.235166
-0.240502
0.0655346
0.31499
0.143338
0.309719
0.146992
0.205911
0.142063
0.140169
0.176107
0.0377199
0.111599
-0.136473
-0.636377
-0.543659
0.439072
0.459283
0.243781
0.0492144
-0.175785
0.0224838
0.214834
0.153288
0.193536
0.261369
0.254352
-0.346359
-0.271174
-0.0376099
0.189856
-0.114752
-0.122613
-0.126907
0.0363328
-0.0331541
)
;

boundaryField
{
    wall-4
    {
        type            zeroGradient;
    }
    velocity-inlet-5
    {
        type            zeroGradient;
    }
    velocity-inlet-6
    {
        type            zeroGradient;
    }
    pressure-outlet-7
    {
        type            fixedValue;
        value           uniform 0;
    }
    wall-8
    {
        type            zeroGradient;
    }
    frontAndBackPlanes
    {
        type            empty;
    }
}


// ************************************************************************* //
