/*--------------------------------*- C++ -*----------------------------------*\
| =========                 |                                                 |
| \\      /  F ield         | OpenFOAM: The Open Source CFD Toolbox           |
|  \\    /   O peration     | Version:  2412                                  |
|   \\  /    A nd           | Website:  www.openfoam.com                      |
|    \\/     M anipulation  |                                                 |
\*---------------------------------------------------------------------------*/
FoamFile
{
    version     2.0;
    format      ascii;
    arch        "LSB;label=32;scalar=64";
    class       surfaceScalarField;
    location    "24";
    object      phi;
}
// * * * * * * * * * * * * * * * * * * * * * * * * * * * * * * * * * * * * * //

dimensions      [0 3 -1 0 0 0 0];

oriented        oriented;

internalField   nonuniform List<scalar> 
1300
(
3.75095
5.62643
-5.79896
3.75095
-5.73552
5.62643
-4.51064
4.51064
-1.16478
1.16478
1.87649
1.87446
-2.94185
2.94185
-2.46412
2.46412
-2.57992
2.57992
-5.24645
5.24645
-5.06793
5.06793
4.68074
-4.68074
-4.51422
4.51422
-1.59839
1.59839
-3.92574
3.92574
3.17038
-3.17038
-4.15712
4.15712
-0.369067
0.369067
-0.553522
4.30448
3.19743
3.19743
-2.25569
2.25569
-4.8578
4.8578
6.21826
-6.21826
8.75508
-8.75508
-2.95611
-3.42264
1.37289
-8.49627
-4.36263
-4.36263
-8.44042
8.44042
-2.81399
2.81244
2.94213
-2.94213
-1.77494
1.77494
-4.43677
-0.073867
-4.43677
4.51867
-0.00802879
4.51867
-1.30046
0.135684
-1.30046
3.98612
-3.98612
0.992467
0.172309
0.992467
3.06435
-3.06435
-1.87712
3.75361
1.87384
-1.87176
6.17623
-1.87919
3.75365
-5.86415
5.86415
-3.17225
0.230403
-3.17225
2.68457
0.257278
2.68457
-6.09179
6.09179
-2.24559
-0.218533
-2.24559
2.81181
-0.347682
2.81181
2.84756
-2.84756
-2.65585
0.0759325
-2.65585
2.51561
0.0643143
2.51561
0.35357
5.27286
-5.98
8.79244
-5.27286
0.0264126
5.20851
0.0379406
5.20851
-5.10594
0.0380095
-5.10594
5.01068
0.0572515
5.01068
4.776
-0.0952673
4.776
-4.79258
0.111842
-4.79258
-3.23357
-3.72137
-4.51949
0.00527064
-4.51949
-1.6136
0.0152104
-1.6136
1.56963
0.028756
1.56963
-3.5156
3.5156
-4.31044
0.384698
-4.31044
3.12491
0.0454695
3.12491
1.86849
1.88246
5.61944
-5.61944
2.44907
-3.8888
-0.268321
-3.8888
-4.39923
-4.35585
4.39923
-0.242104
-0.64153
0.272463
-0.64153
3.15923
0.0381985
3.15923
2.42618
0.0894268
-2.42618
0.170495
3.28108
-3.28108
1.63268
0.623007
1.63268
-5.56944
5.56944
4.95097
0.0597133
-4.95097
0.093166
6.15682
0.0614462
6.15682
-6.19955
-0.0187124
-6.19955
3.1741
-6.59674
-3.55827
4.44474
0.069485
-4.44474
0.0821078
2.91255
0.0295746
2.91255
-2.92385
2.92385
-2.98225
0.0401236
-2.98225
-2.18605
0.411109
-2.18605
1.46149
0.31345
1.46149
-4.30071
-0.136059
-4.30071
-4.45145
0.141011
4.45145
0.0672158
0.992966
-0.992966
-1.44171
0.141248
-1.44171
-4.13062
-0.170095
4.13062
-0.144494
-3.87672
-0.109402
-3.87672
-3.02282
0.0405722
3.02282
0.0415321
3.11233
0.0469034
-3.11233
0.047975
-1.87084
3.75331
-1.88011
3.75395
-5.47773
-0.386426
-5.47773
6.16783
-0.303681
6.16783
3.54505
0.380693
-3.54505
0.3728
2.50858
0.175984
2.50858
-6.36756
0.275768
-6.36756
5.58307
0.508721
5.58307
2.32373
0.184853
-2.32373
0.0781408
3.15421
-0.342404
3.15421
2.87187
-0.024319
2.87187
-2.85074
0.00318363
-2.85074
2.80369
-2.80369
2.73316
0.0705299
-2.73316
0.0773024
-11.1328
11.1141
-0.0351177
-11.0977
5.17339
5.17339
4.20654
0.569463
4.20654
-5.00388
0.211304
-5.00388
3.13309
-6.69136
3.6594
-6.89298
3.67174
-12.168
3.32519
-7.04656
4.75698
-4.75698
4.55468
0.202299
-4.55468
0.0351899
-1.63178
0.0181796
-1.63178
-2.89796
-0.617644
-2.89796
4.1721
-0.656502
4.1721
-3.03028
3.03028
-3.07856
0.0482785
3.07856
0.0463484
3.56292
-0.408713
-3.56292
-0.325881
0.819861
0.172606
-0.819861
0.178332
3.4982
-0.217117
3.4982
-3.08056
-0.200525
-3.08056
-1.6375
0.00572056
1.6375
-0.0048203
-5.8175
0.248067
-5.8175
-11.1907
0.0930177
-11.1527
-6.10653
-6.10653
2.33388
11.1263
-2.88133
0.0305905
2.88133
0.031222
2.97834
0.0519457
-2.97834
0.0544902
-2.86645
0.0627677
2.86645
0.0573917
-2.56992
0.383871
-2.56992
-1.04251
1.04251
-1.23483
0.192314
1.23483
0.226659
1.23244
-0.239474
1.23244
1.53475
0.0348856
-1.53475
0.0930397
-3.78162
-0.0951076
-3.78162
6.41963
-0.251802
6.41963
-2.94865
-0.131904
2.94865
-0.0767788
-0.0333006
11.1474
-5.14009
0.0341471
5.14009
-11.2088
11.243
-3.24882
0.678906
3.24882
0.957716
5.29204
0.277396
-5.29204
0.288157
5.12353
0.459536
-5.12353
0.366553
-2.39934
-0.498617
-2.39934
-4.89939
-0.578333
4.89939
-0.727289
-11.4759
-0.201617
11.6775
-11.4187
6.01912
0.137698
-6.01912
11.3807
-0.942597
-0.0503692
0.942597
0.0999177
1.54147
-0.309026
1.54147
3.6831
-0.184897
-3.6831
-0.0985178
-6.51395
0.146387
6.51395
-0.0943124
-1.95244
-0.446904
1.95244
-0.41097
-4.26662
4.30482
1.90961
-2.98345
-3.61329
-7.3393
1.85202
1.90128
4.30109
-7.65754
-4.51046
-7.57544
7.27007
-6.98191
-9.295
9.19973
7.54039
-7.64979
-5.78473
5.83107
6.48191
-6.44038
1.87886
1.87476
7.9379
-7.70749
-15.6194
15.233
5.75974
-5.97828
16.3342
-16.0585
-17.6412
18.1007
-5.75401
5.82994
-6.66603
6.66922
-6.85813
6.78135
-2.80678
-4.0862
10.533
-10.5277
10.1256
-10.3939
-8.49566
8.88036
3.38274
0.92208
3.42964
-1.88239
3.76124
-1.87127
3.78088
3.71215
-6.51893
2.9792
-6.59249
5.64753
4.47803
-5.40543
-1.93387
-5.91786
5.94743
-5.82192
5.87931
8.90031
-8.97418
-1.88526
3.76002
-1.86868
3.76997
-3.4254
-2.35933
3.37993
0.921158
6.28276
4.2502
-6.35225
-1.22319
-7.75766
7.57276
-8.03991
7.83938
-0.448565
5.82253
-5.37396
4.40924
-1.55343
7.37596
5.71664
5.92794
5.86756
-5.59016
1.11436
-6.48832
-6.39516
-2.54732
2.68857
2.52661
-2.3543
5.92342
1.61697
5.77893
-5.52859
-2.1212
-5.6237
3.82145
2.00963
3.86973
4.07624
2.40568
4.11681
3.03108
-3.03512
0.00404376
-3.0567
6.08777
0.7249
-5.41602
-4.49487
4.83755
3.10035
5.09482
-5.49389
-2.21361
-5.12109
-9.514
-6.10544
-10.0923
10.079
5.15399
9.77534
-11.9255
11.8312
4.02671
1.73304
3.67903
-3.80164
-2.17663
-3.7235
13.2846
-3.28261
-10.002
-10.6233
-7.01791
10.1145
6.2197
10.3432
7.75751
10.7098
4.48441
8.80016
-10.7041
3.6862
-3.87342
-1.88059
-3.79611
3.732
2.09794
3.79632
-4.19536
-2.47067
-4.16477
-4.22672
-2.63141
4.25104
2.41818
-4.31285
-3.72706
4.44476
2.33659
3.55304
-8.0635
3.49352
-7.57972
-7.74029
-2.78741
-7.7051
4.77588
1.80671
-6.58259
-1.74305
10.2694
-5.79138
8.33554
-5.60012
-4.79376
-5.926
-6.81377
-1.68189
-6.67275
-8.83694
8.33833
-9.15396
8.49746
12.7392
-5.7279
-7.01134
-3.96817
-2.47221
3.9202
-0.490556
-3.71203
3.71607
0.0492115
3.83009
4.75217
4.26162
-3.88555
-1.93637
-3.83106
3.83325
2.04606
3.89602
6.74061
2.1597
6.73258
-6.3999
-2.57428
-6.53596
9.10363
-8.69252
2.96368
-2.95796
5.23981
2.59957
-5.02269
-2.73496
6.08438
-3.04407
-3.04032
-12.2144
10.5807
1.63371
-4.83846
-0.429227
-0.0601604
-5.50877
-3.78623
5.39693
0.531015
11.1117
7.32551
-5.51329
5.76136
6.16424
6.22396
-0.171198
5.85807
-5.17916
5.34273
-2.4363
-2.90643
5.27433
-5.44442
-1.26163
-5.25621
3.99457
0.334503
1.805
-1.53254
-2.04529
-0.50203
-1.95225
1.51548
1.01113
1.68809
0.991619
1.69695
-2.92228
0.521668
2.40061
-1.93066
-1.83263
-3.64977
-1.03159
4.68136
5.5229
2.04987
-5.42438
-0.199325
2.7352
-2.70645
-0.779064
-2.8707
2.11738
-2.89644
-3.5269
-1.91066
5.43756
-3.36996
-0.461092
3.31802
0.55171
-3.8243
-2.09356
3.78418
0.33263
-3.12376
6.18916
-3.0654
-5.06014
2.52953
3.55824
4.53916
-4.78986
2.44559
2.34426
-1.23162
3.82705
1.26778
4.00303
-6.84146
4.62785
5.71105
3.16931
-6.09174
0.97065
-5.87081
8.44456
-7.2608
-1.18377
4.11312
4.33145
7.18535
5.55389
-5.73344
12.9188
-1.07639
-6.1844
6.9472
-3.77789
4.78711
-8.565
-10.341
4.1566
-9.17261
11.2136
-2.04095
-3.60555
-8.31991
12.7782
-1.20363
-11.5745
8.57172
-4.42765
-4.15123
8.57887
-7.71026
6.32786
-1.38337
-4.9445
-10.3211
-5.73741
10.1747
1.65648
-10.2978
13.984
-1.49769
3.78423
-0.105205
3.44183
3.2945
-6.16383
2.86933
4.41576
-5.79912
1.45915
-7.62298
-6.31167
10.8095
-4.49783
-9.09908
-9.3216
0.222527
1.56485
12.4192
-9.32235
6.11465
3.20771
3.30902
0.586998
-3.37955
-0.416563
0.330282
4.53288
-4.86317
4.1266
4.21603
3.4102
1.12268
3.83123
2.1162
-3.86245
-0.302317
-4.12698
1.49557
-1.7088
-3.65562
5.15119
-4.08724
0.431617
-2.73115
-3.5538
6.28495
-4.61175
3.04147
3.14769
5.08753
-4.93764
1.38384
-2.43561
-2.50203
2.7034
-4.4122
1.96344
3.18775
4.30003
0.572974
5.88226
4.92724
-7.68897
0.109247
9.17744
-7.95426
3.03418
7.67557
-9.14883
-0.172774
-7.87787
0.212321
-6.0037
-6.37027
5.08965
-6.77155
-3.47535
6.1537
0.578877
-6.22092
-0.451835
-5.98353
-2.85341
-6.43044
-3.06654
-6.08742
-8.79998
-1.63326
-7.16672
6.70507
-6.64922
-3.44311
7.37651
1.12095
-7.37872
7.32835
-7.44851
7.13948
0.0945156
3.62156
4.35613
1.88392
-2.38994
4.27386
-5.06331
7.22301
-8.4577
3.39438
3.94233
-6.5166
-4.51537
5.041
4.06263
5.35445
8.98408
-10.5611
1.57705
-10.8839
12.1604
-1.27647
-16.6691
5.78521
-7.68505
2.70283
0.260852
2.72101
0.67619
2.41288
-3.08907
-2.28177
-2.28659
-2.29171
-3.35136
5.64307
1.1266
-3.34503
2.21843
-3.46496
4.59156
-0.0721794
-3.27285
5.24038
-2.8275
5.50123
-3.53714
1.96409
3.25688
5.56456
-2.30768
4.28495
-1.68538
1.80138
-4.10906
-1.54999
-3.016
5.11394
-3.26895
3.70057
-0.250777
3.95134
-4.031
0.986934
-0.6208
3.59523
3.76572
4.23361
-3.11093
2.91576
-4.60114
-1.1933
-4.02817
-0.840417
-0.324022
-3.75319
4.07721
6.07997
-6.40399
-5.29211
9.60895
-4.31684
7.7427
-5.42603
-2.31667
-4.28853
-4.404
3.90465
1.95341
9.69611
0.207769
-5.6338
-4.97139
-4.01368
3.23816
2.10457
-2.02297
3.65667
2.08313
-0.278124
0.564225
1.12386
1.87929
-1.31506
0.230346
1.64894
-1.30219
2.0167
0.718508
-2.05158
0.0993297
-1.37312
3.4905
1.02749
-2.03862
0.723557
1.01548
-3.45178
4.74055
-2.45796
-2.28259
5.75604
1.14378
-3.60173
4.11243
-3.77793
2.30048
-3.33207
-1.30125
-5.07918
-3.4622
-2.46882
4.68725
-3.17425
5.22412
1.16035
-5.02479
6.18514
-3.54772
1.63706
-3.03771
3.75622
-1.04385
-1.99386
2.75091
2.68665
-2.91438
0.0436784
-0.163476
2.29377
-2.45725
-0.60267
-2.53333
-4.5728
4.90543
-2.10674
4.55234
2.16712
-1.9139
6.46624
1.81171
-3.72561
-3.24843
-3.70952
-1.38134
3.15781
-0.14246
-3.58104
-5.08696
3.39619
0.606839
-7.02693
7.55231
-0.525385
-3.92657
-0.701277
4.81439
-5.71794
-0.0811844
-4.25879
3.29352
4.5613
5.16814
-11.38
-0.194542
-6.22601
1.23802
-7.46403
5.56947
-3.6031
7.7597
-10.4366
6.99353
-9.31569
6.57594
-0.88809
6.97559
-4.10626
3.02637
-8.76378
-7.1073
4.88927
-3.15623
4.78406
-3.92496
8.70902
-5.42265
5.9766
2.73242
-1.97258
-3.95342
-5.05629
3.08371
0.920307
4.36214
4.96431
-2.84811
4.66199
2.22087
-4.65649
-2.19132
-6.51229
1.8558
-3.3646
-1.91052
3.76632
3.17702
3.76401
1.2643
-3.34745
8.44466
-8.22214
-3.94684
-2.42344
5.81873
-2.73502
4.97874
-7.40217
-1.02497
4.88336
-0.852569
-4.03079
0.844547
-4.31989
1.65362
-5.97352
5.11792
-5.56976
2.18661
-9.87166
-5.19211
-5.09219
-2.2329
-5.21561
-7.65848
5.42557
-1.87327
5.45508
-8.6747
7.82213
-3.48569
8.91126
-5.39253
-1.0379
5.8035
1.33598
10.2472
0.113985
-4.62936
-1.84281
3.97367
-2.13086
1.39535
-3.6392
0.334467
2.4189
3.33714
-6.41347
-0.103129
-4.73249
-3.92148
7.98411
5.68748
11.7674
1.20631
9.19487
-1.21076
10.4012
4.14369
4.37035
-3.01174
4.58879
1.06547
4.45986
-0.855415
2.81951
1.86559
1.8808
0.825645
2.29991
1.46581
3.28685
0.197775
-2.08881
4.65463
-8.66831
-0.979165
-8.09885
1.10088
5.74062
-4.63974
3.18836
-1.08379
1.0575
0.0870741
-1.7125
1.62542
-2.81936
-1.99062
-0.341676
-1.63113
2.35469
1.85936
-2.01301
-0.806346
0.315892
-3.77809
3.01618
-2.9725
-0.285849
5.89929
-2.70642
0.249172
-1.06936
-2.28416
-2.78619
2.68686
6.17348
0.292759
3.10808
5.19819
3.10463
0.25652
3.74037
-5.78132
-3.88262
-5.97586
-0.406393
4.408
3.78868
8.63053
6.52109
3.78608
-3.6161
-11.8382
6.53338
-1.94459
5.25691
-1.22612
-4.7474
4.97308
2.24993
-5.55196
-0.0178037
-4.7652
-6.70979
-0.55166
8.37379
-9.69558
8.65768
5.80427
1.36245
-4.39615
-0.696044
4.20383
0.166514
10.5677
-1.12568
-6.88407
8.00975
-4.61495
3.63578
0.872771
2.7839
2.49819
1.4144
-5.46967
-10.1094
-1.91691
-1.53487
-4.1995
0.481856
-2.34122
6.27833
-2.64255
3.96166
5.3672
6.4247
-2.18657
-4.21741
6.50341
-2.54176
3.88295
)
;

boundaryField
{
    wall-4
    {
        type            calculated;
        value           uniform 0;
    }
    velocity-inlet-5
    {
        type            calculated;
        value           uniform -3.75095;
    }
    velocity-inlet-6
    {
        type            calculated;
        value           uniform -5.62643;
    }
    pressure-outlet-7
    {
        type            calculated;
        value           nonuniform List<scalar> 8(5.79896 5.73552 6.37876 7.12338 6.95494 6.73236 6.79249 6.99693);
    }
    wall-8
    {
        type            calculated;
        value           uniform 0;
    }
    frontAndBackPlanes
    {
        type            empty;
    }
}


// ************************************************************************* //
