/*--------------------------------*- C++ -*----------------------------------*\
| =========                 |                                                 |
| \\      /  F ield         | OpenFOAM: The Open Source CFD Toolbox           |
|  \\    /   O peration     | Version:  2412                                  |
|   \\  /    A nd           | Website:  www.openfoam.com                      |
|    \\/     M anipulation  |                                                 |
\*---------------------------------------------------------------------------*/
FoamFile
{
    version     2.0;
    format      ascii;
    arch        "LSB;label=32;scalar=64";
    class       volVectorField;
    location    "24";
    object      U;
}
// * * * * * * * * * * * * * * * * * * * * * * * * * * * * * * * * * * * * * //

dimensions      [0 1 -1 0 0 0 0];

internalField   nonuniform List<vector> 
918
(
(0.985161 -0.000514268 0)
(0.00500503 2.96625 0)
(-0.0178753 1.53343 0)
(0.979702 0.00215443 0)
(-0.000891359 1.52259 2.58577e-20)
(-0.00703423 2.94878 -1.85102e-18)
(0.84904 1.19051 7.33312e-19)
(0.389784 0.176471 -8.90864e-21)
(0.999907 -0.000291284 0)
(0.0524667 0.849659 0)
(-0.046424 0.701648 0)
(0.739246 -0.0109235 0)
(0.011099 2.93035 0)
(0.00200231 2.79451 0)
(-0.017512 3.16554 1.08486e-18)
(0.0170698 1.37073 9.06675e-20)
(0.496862 0.075925 5.56609e-19)
(0.19224 1.21585 6.38015e-19)
(0.96301 0.00504068 0)
(-0.00946728 1.19002 0)
(0.11842 0.227028 -4.62146e-19)
(1.00204 -0.00498555 0)
(1.00021 -0.00978975 0)
(0.975717 -0.00645484 0)
(0.645713 -0.0408453 0)
(0.0167152 2.63459 0)
(-0.0150343 2.91012 6.37997e-19)
(-0.02776 1.54889 0)
(-0.0407558 1.70061 0)
(-0.0261494 1.54285 0)
(-0.00764576 1.90576 0)
(0.0134107 1.5542 -2.04455e-20)
(0.00658917 1.39826 0)
(-0.0206261 2.98759 -6.46635e-23)
(-0.0167016 3.00531 1.43881e-18)
(0.00210615 3.00021 0)
(0.870098 -0.0095672 0)
(0.399091 0.937183 -3.51207e-20)
(0.824737 1.20999 -1.02703e-18)
(0.972621 1.04269 9.63116e-19)
(0.693271 1.30682 -1.70127e-19)
(0.691993 1.29701 9.51609e-19)
(0.429167 0.270269 8.69184e-21)
(0.422329 0.162096 0)
(1.15932 0.560109 0)
(0.391169 0.277232 4.04635e-20)
(0.342183 0.174752 -4.19937e-20)
(0.919574 -0.00745705 0)
(1.00028 0.0001455 0)
(0.999908 0.000345621 0)
(1.00362 -0.00779884 0)
(1.00096 -0.00098486 0)
(1.00017 1.36199e-05 0)
(0.0854788 1.78128 -2.04604e-19)
(0.0235886 0.982454 0)
(0.104236 0.931378 0)
(0.0319114 0.920937 0)
(0.0313773 0.769735 0)
(-0.0992805 1.79601 0)
(-0.0336963 0.77894 0)
(-0.00525559 0.626071 0)
(-0.0491987 0.86059 0)
(-0.0467308 0.817618 0)
(0.831048 -0.0107113 0)
(0.853537 0.0189675 0)
(0.765676 0.00196886 0)
(0.837604 0.0210962 0)
(0.72431 -0.0169821 0)
(0.0147018 3.00039 6.77289e-19)
(0.0115282 3.00789 0)
(0.0061387 3.00284 0)
(0.0135416 2.99732 7.54652e-24)
(0.00799818 2.95847 -1.00662e-18)
(0.0144802 2.98207 0)
(0.0107776 2.90366 0)
(0.0251587 2.93045 1.34397e-24)
(0.00421071 2.82483 0)
(0.0312487 2.91564 0)
(-0.006417 2.7446 0)
(0.311581 3.56616 0)
(-0.13232 3.64847 0)
(0.141406 3.25636 1.00961e-18)
(-0.0112277 2.98855 0)
(-0.0616204 1.85528 0)
(0.0546709 1.54293 -8.94518e-20)
(0.0148426 1.33422 1.34976e-19)
(0.564059 0.157081 -1.91806e-19)
(0.500219 0.0454707 -1.86007e-19)
(0.545143 0.177695 -5.77681e-19)
(0.487589 0.0981734 -3.89652e-19)
(0.219352 0.90649 0)
(0.271752 1.36051 -6.64994e-19)
(0.392101 1.31451 1.09198e-18)
(0.987693 0.00860454 0)
(0.942153 0.00596036 0)
(1.0003 0.000580725 0)
(1.00286 0.00930507 0)
(1.003 0.00845248 -1.07386e-18)
(0.991929 0.00968635 8.10859e-19)
(-0.0335588 1.32 0)
(-0.0335769 1.12889 0)
(-0.0424891 1.54914 0)
(-0.0302954 1.41104 0)
(-0.00652252 1.26501 0)
(0.174739 0.236 1.42435e-19)
(0.222671 0.212454 0)
(0.993524 -0.00835062 0)
(0.954368 -0.00641525 0)
(0.804332 0.027467 0)
(0.76963 0.0386245 0)
(0.699601 -0.0317483 0)
(0.975257 -0.00373323 0)
(0.70843 0.055417 0)
(0.55136 -0.0197381 7.41172e-19)
(-0.0360266 2.86542 3.22991e-19)
(0.0431587 2.90831 0)
(0.0559662 2.88365 0)
(-0.00513509 2.69745 0)
(-0.0132304 2.98522 5.85512e-19)
(-0.0182131 2.8954 0)
(-0.0153744 2.98814 -1.8543e-18)
(-0.0134205 2.92522 6.40661e-19)
(-0.055038 1.7776 0)
(-0.0530879 1.79329 0)
(0.0321911 1.54315 1.93905e-21)
(0.0206967 1.52944 0)
(0.000174805 1.38583 0)
(0.937219 -0.00707359 0)
(0.855571 -0.00918462 0)
(0.864848 0.00790907 0)
(0.948637 -0.00769501 0)
(0.883262 -0.00872857 0)
(0.512916 1.13247 3.28924e-20)
(0.564178 1.18639 0)
(0.359361 0.877093 3.90652e-21)
(0.30213 0.738493 0)
(0.93245 1.08097 -2.78663e-19)
(1.0458 0.879658 5.70632e-19)
(0.386202 1.40261 0)
(0.547033 1.37418 0)
(0.549045 1.33407 0)
(0.100157 0.161578 -1.28614e-19)
(0.472518 0.254951 0)
(0.456501 0.152137 1.12018e-19)
(1.01587 0.933875 0)
(1.08348 0.779039 0)
(1.10864 0.721493 -5.00622e-19)
(1.13949 0.619373 0)
(1.19064 0.403791 5.78058e-20)
(0.957287 -0.008726 0)
(0.962181 -0.0101092 0)
(0.901176 -0.00808991 0)
(0.984159 -0.00914924 0)
(0.974526 -0.00944677 0)
(0.936961 -0.0062755 0)
(1.00018 0.00234459 0)
(1.00086 0.00138427 0)
(0.999918 0.000855958 0)
(0.0377702 2.02653 1.36121e-19)
(0.123295 1.70699 0)
(0.0169637 2.12653 2.62585e-20)
(0.0448119 1.85931 -1.59431e-20)
(0.136422 1.20583 -5.28677e-19)
(0.0494837 1.06993 0)
(0.0968915 1.07193 0)
(-0.00212405 0.852937 0)
(-0.00620075 0.709266 0)
(-0.0690299 2.05621 3.30697e-21)
(-0.0374669 1.90133 0)
(-0.086341 1.91927 2.06825e-19)
(-0.10137 1.62521 -1.2024e-20)
(0.0208224 0.807649 0)
(0.0110637 0.768496 0)
(0.000171824 0.649015 0)
(-0.0599677 0.968913 0)
(-0.0484929 0.915927 0)
(0.926312 0.0114297 0)
(0.844283 -0.00586511 0)
(0.917747 0.000694173 0)
(0.83508 -0.0118941 0)
(0.813421 0.00557979 0)
(0.903947 0.0166522 0)
(0.881643 0.0196009 0)
(0.788501 0.00378321 0)
(0.0059135 3.06493 -5.93764e-21)
(0.016466 3.0579 0)
(0.0147017 2.96914 0)
(0.00859748 2.87636 0)
(0.930181 3.98662 0)
(1.2462 3.31715 1.01619e-18)
(0.0714474 3.08056 0)
(-0.0267223 2.90936 0)
(-0.0770729 1.78361 0)
(-0.0829705 1.83821 0)
(-0.0652376 1.81009 0)
(-0.0315441 1.89942 4.043e-21)
(-0.0732941 1.87532 0)
(-0.0457664 1.86831 0)
(-0.00927598 1.37438 -2.39561e-20)
(0.0487578 1.56942 -2.20639e-19)
(0.0633565 1.54273 -1.37811e-19)
(0.00249476 1.31839 0)
(0.594858 0.124488 2.81848e-19)
(0.5159 0.0173471 -2.75087e-19)
(0.259941 1.53492 0)
(0.260034 0.676039 -2.07444e-19)
(0.171953 1.62404 -6.95053e-19)
(0.230623 1.15638 6.96915e-19)
(0.902935 0.00663075 0)
(0.967682 0.0108438 0)
(0.974779 0.0108098 0)
(0.923824 0.00668212 0)
(-0.0642815 1.09389 0)
(-0.0474708 1.2185 0)
(-0.0517669 1.0332 0)
(0.340283 0.271074 3.70568e-19)
(0.284185 0.250466 -4.50673e-19)
(0.29208 0.192669 0)
(1.10154 0.0863508 -4.10898e-21)
(1.08602 0.0402344 0)
(1.01372 0.0402087 0)
(0.912411 0.00377882 0)
(0.617521 0.0953117 0)
(0.648859 0.068966 -1.19332e-18)
(0.531653 0.00262262 4.5605e-19)
(0.00963804 2.9822 4.1314e-19)
(-0.0319734 2.86756 4.90053e-20)
(0.00372238 3.05022 -1.28413e-20)
(0.0200233 3.04346 4.6167e-19)
(-0.0150096 2.99655 2.13141e-20)
(-0.0129654 2.94942 -8.63125e-23)
(-0.0172781 3.01201 -4.04616e-19)
(0.0147924 3.02406 2.92713e-19)
(0.00730568 3.03677 -4.56818e-19)
(0.928769 -0.00149226 0)
(0.936792 -0.00325453 0)
(0.843097 -0.00740643 0)
(0.957072 0.0113559 0)
(0.943774 0.0126647 0)
(0.883006 0.00644804 0)
(0.919715 0.0153437 0)
(0.927851 0.0144832 0)
(0.840364 0.00682019 0)
(0.720145 1.41577 3.32868e-19)
(0.755066 1.5264 0)
(0.218712 0.3536 2.43954e-20)
(0.178557 0.6095 2.10634e-19)
(0.265396 0.698694 -1.17447e-19)
(0.246021 0.574461 2.17797e-19)
(0.30272 0.717481 7.36566e-19)
(0.110999 0.192358 2.13902e-19)
(0.528388 0.205116 -4.02444e-19)
(0.505425 0.235341 1.05498e-19)
(0.480777 0.130605 2.11129e-19)
(1.17959 0.460713 3.00498e-19)
(1.19551 0.256189 3.12936e-19)
(0.0151024 2.14276 -9.1948e-21)
(0.0270506 1.93578 0)
(0.965071 0.0312641 0)
(0.932987 0.0187602 0)
(0.868598 -0.00498865 0)
(0.0111039 3.07451 0)
(0.0199649 2.94423 7.90305e-19)
(0.0165004 2.95643 0)
(0.00617622 2.85065 -7.8382e-19)
(0.00624133 3.09205 1.87078e-19)
(0.00717887 3.08237 0)
(0.788871 1.83114 -2.40912e-19)
(1.25361 2.51366 6.64107e-19)
(0.771487 1.97203 -1.49865e-18)
(0.0207571 2.98345 -2.99946e-19)
(0.0368626 3.00541 0)
(-0.0328741 2.88087 0)
(-0.0582199 1.75303 -1.82997e-20)
(0.0138431 1.65526 1.45307e-20)
(-0.017908 1.48739 -1.96445e-20)
(0.276108 1.34406 6.75093e-19)
(0.210792 0.452283 -4.65484e-19)
(0.0621211 1.95364 4.49442e-19)
(0.135738 1.8458 -5.67111e-19)
(0.180221 1.44636 8.56397e-20)
(0.00586423 3.11797 -9.82159e-19)
(0.0139847 3.11852 1.06361e-18)
(-0.00892881 2.98065 5.08738e-19)
(-0.00329995 2.97752 -4.49934e-19)
(-0.0216655 2.88174 -5.18139e-19)
(0.00860503 3.09871 -1.36729e-18)
(0.00187851 3.10638 1.35816e-18)
(0.241903 0.632636 0)
(0.197132 0.622877 -3.90088e-19)
(0.109073 0.208719 1.77132e-19)
(0.325713 0.83852 6.4064e-19)
(0.172381 0.231909 -9.80028e-19)
(1.18775 0.172939 -5.9059e-20)
(1.19478 0.309113 0)
(1.17653 0.120793 1.2266e-19)
(-0.06652 2.12352 2.52422e-21)
(-0.0266361 2.16636 0)
(-0.0188219 1.95744 0)
(0.335761 1.23667 -2.45287e-19)
(0.351896 1.05176 -5.2001e-19)
(0.186183 0.32586 8.9305e-19)
(1.00583 -0.0109544 0)
(1.00762 -0.00764858 1.95752e-19)
(-0.066861 1.74056 0)
(-0.0731869 1.73958 0)
(1.00224 0.0035213 1.82902e-21)
(1.00357 0.00930293 4.03113e-19)
(-0.030075 1.92065 -5.20744e-21)
(-0.0179198 1.93638 0)
(0.0385674 3.18218 1.10647e-19)
(0.400257 3.50081 0)
(1.12244 0.643362 6.72621e-20)
(1.01308 0.0129887 -2.01507e-21)
(1.02098 -0.0106806 0)
(1.00174 6.17659e-05 8.88622e-23)
(0.117313 1.35724 0)
(0.136176 2.57174 0)
(-0.0935988 1.02963 0)
(-0.0924433 2.68389 -2.80306e-19)
(-0.235392 2.57357 -2.00257e-19)
(1.00793 0.0238588 2.87687e-21)
(1.05411 -0.0031599 0)
(1.07821 0.0269906 0)
(-0.0958055 1.83494 0)
(-0.0391532 2.076 0)
(-0.161797 1.56917 0)
(0.284958 1.46623 -4.39408e-19)
(1.01123 -0.00965157 0)
(1.00942 -0.0150925 0)
(1.00252 0.000583831 2.49937e-19)
(1.00547 -0.00495855 -2.94156e-19)
(1.00122 -0.00103965 0)
(-0.125287 1.79742 0)
(-0.0929507 1.73963 0)
(-0.0967243 1.77918 0)
(-0.140799 1.58209 0)
(-0.0924789 1.66515 0)
(-0.102147 1.6435 0)
(1.03449 -0.00757244 0)
(1.02063 0.0149939 -1.1415e-21)
(0.780422 1.25868 5.21891e-19)
(1.00218 0.000339923 -2.4772e-19)
(1.00408 0.00525622 2.93877e-19)
(1.00119 0.00207368 0)
(1.01293 0.0102571 2.42843e-19)
(1.00801 0.00815757 -3.01629e-19)
(1.00876 0.0145563 0)
(-0.0327529 2.06463 0)
(-0.0297188 1.99051 -4.08945e-20)
(-0.0187633 2.0044 3.47051e-20)
(1.19471 0.259495 -7.94658e-20)
(1.13272 0.088473 0)
(0.0498496 3.07764 -5.08601e-19)
(0.0676143 2.85181 -4.06635e-20)
(0.146787 3.19595 8.13255e-19)
(0.141281 3.22513 6.66937e-22)
(0.139321 3.24035 0)
(0.0206118 3.13813 1.10165e-19)
(0.0794729 3.16171 4.95412e-19)
(0.0722046 3.18858 -2.12985e-19)
(0.0240727 3.12904 0)
(0.659718 0.324219 0)
(0.581679 0.372721 0)
(1.09456 0.673178 -2.56844e-19)
(1.09313 0.809031 -9.59102e-20)
(1.15225 0.561762 0)
(1.18383 0.506932 0)
(1.01616 0.0131068 -4.49156e-19)
(1.01499 0.0140229 -1.57223e-21)
(1.02505 -0.0105573 0)
(1.02317 -0.0122213 0)
(1.0068 0.00244656 0)
(1.01057 0.0035554 0)
(1.00449 0.00166225 0)
(1.00992 0.00625817 0)
(1.0079 0.00603566 0)
(1.00436 0.00435872 0)
(0.109645 1.35272 0)
(0.105316 1.29171 0)
(0.119595 1.389 0)
(0.141807 1.39964 0)
(0.140651 2.59384 0)
(0.184767 2.65188 -1.98808e-19)
(0.105999 2.64692 0)
(0.0801553 2.65281 -2.09569e-20)
(0.0342586 2.66539 2.20376e-19)
(-0.102244 1.02838 0)
(-0.138015 1.00943 0)
(0.0141228 1.04107 0)
(0.0318502 0.956201 0)
(-0.00832205 2.26887 4.55106e-19)
(-0.228361 2.63129 -3.38404e-19)
(-0.158183 2.7117 -4.01999e-19)
(-0.1904 2.67677 0)
(-0.22556 2.57087 4.86718e-19)
(-0.204904 2.49973 3.61226e-19)
(-0.0269825 2.30478 -3.34068e-19)
(-0.230103 2.59094 4.76396e-19)
(-0.189087 2.58283 5.11454e-19)
(1.01642 0.0328711 4.4359e-19)
(1.00907 0.020678 2.01502e-21)
(1.00849 0.0328486 -4.57258e-19)
(0.990619 0.0137673 5.91064e-19)
(1.05472 0.000696797 0)
(1.04221 -0.0149264 0)
(1.07598 0.0327971 0)
(1.05988 0.00825811 0)
(1.05681 0.00146917 0)
(1.1168 0.079321 0)
(1.089 0.047734 0)
(1.09078 0.0404021 0)
(-0.0787189 1.91564 -2.03821e-22)
(-0.118746 1.88124 0)
(-0.0876161 1.88489 0)
(-0.0704718 2.15882 -3.74976e-20)
(-0.0566522 2.18257 3.61784e-21)
(-0.219249 1.83965 -1.03958e-20)
(-0.152512 1.79604 1.05334e-20)
(-0.197544 1.66657 0)
(-0.154765 1.71504 0)
(-0.1329 1.72736 0)
(-0.203072 1.50057 0)
(-0.132396 1.39531 0)
(0.375601 1.47931 8.33968e-19)
(0.404191 1.49316 3.28929e-19)
(0.591922 2.43503 -1.53385e-19)
(0.409772 2.52882 4.20227e-19)
(0.35711 2.08726 -5.06869e-20)
(1.02097 -0.00866836 0)
(1.01543 -0.0100744 0)
(1.01476 -0.0155976 0)
(1.00784 -0.00138303 0)
(1.00482 -0.00128036 0)
(1.00767 -0.00479433 0)
(1.00916 -0.00368733 0)
(1.0141 -0.00461037 0)
(1.02158 0.0155885 4.26864e-19)
(1.01764 0.0156153 -5.49622e-19)
(1.02251 0.0179581 -4.26813e-19)
(1.01921 0.0171391 5.34431e-19)
(0.752429 1.30918 0)
(0.686872 1.36444 6.15628e-19)
(0.858016 1.20054 3.59857e-19)
(0.903563 1.15712 -4.78983e-19)
(1.15443 2.61802 -5.57508e-19)
(0.834595 0.102336 2.8982e-19)
(1.13337 0.102371 0)
(1.17672 0.183054 6.83031e-20)
(1.16206 0.15784 3.02068e-21)
(0.989658 0.12455 0)
(0.144386 2.96469 1.36583e-19)
(0.12229 2.8705 -6.62884e-19)
(0.0332568 2.36156 4.75001e-19)
(0.0988425 0.0663727 -1.99717e-19)
(0.345018 3.42914 -4.41521e-19)
(0.199123 3.31975 0)
(0.240678 3.36385 5.74999e-19)
(0.25316 3.03842 -7.63997e-19)
(0.347648 3.19821 0)
(0.00665598 3.12071 2.60227e-20)
(0.0179759 3.12943 -3.30383e-19)
(0.015544 3.12542 4.86274e-19)
(0.0369003 3.1399 0)
(0.0353217 3.15137 0)
(1.21879 2.6192 0)
(0.535792 0.847525 -2.38087e-19)
(1.02392 0.983818 -2.05337e-19)
(0.961943 1.05032 0)
(0.804484 0.948836 5.54696e-20)
(1.04628 0.86478 2.98802e-20)
(0.396162 0.432439 -5.31328e-19)
(0.699261 0.3409 -2.4276e-20)
(0.684535 0.270947 2.26346e-19)
(0.595402 0.40339 1.75988e-20)
(0.52874 0.37899 -7.20803e-19)
(0.669657 0.357731 0)
(0.693432 0.430175 3.70638e-19)
(0.695251 0.428608 0)
(0.628295 0.392265 0)
(0.616323 0.32601 0)
(0.77601 0.598705 1.29233e-19)
(1.19272 0.276997 -5.46312e-20)
(1.18936 0.411234 0)
(1.20104 0.361307 0)
(0.770428 0.200775 3.32514e-19)
(0.823814 0.539039 -1.8399e-19)
(0.73354 0.507717 -2.9967e-19)
(0.916136 0.419075 -2.79408e-19)
(1.01964 0.0144752 2.95768e-19)
(1.0179 0.0140258 -3.02468e-19)
(1.01585 0.0153855 0)
(1.0352 -0.00644624 0)
(1.02934 -0.00918563 -2.7172e-19)
(1.02709 -0.0131159 2.6892e-19)
(1.02522 0.00911432 0)
(1.02412 0.0127007 0)
(1.01137 0.00378386 0)
(1.01429 0.00860484 0)
(1.01514 0.00326011 0)
(1.01421 0.00238655 0)
(0.105055 1.30383 0)
(0.102344 1.15755 0)
(0.133637 1.36766 3.38958e-19)
(0.266904 1.46131 2.51565e-19)
(0.171213 1.43457 5.36966e-19)
(0.195937 1.43939 -2.87394e-19)
(0.168601 1.38008 0)
(0.115713 1.59452 2.73888e-19)
(0.0728863 1.5621 0)
(0.353344 2.04244 7.36712e-20)
(0.352064 2.36551 2.28807e-19)
(0.159511 1.45658 -2.39296e-19)
(0.267924 1.36016 1.91489e-19)
(0.189674 1.36301 1.53671e-19)
(0.280604 1.30462 3.20977e-19)
(0.254332 1.58167 -1.99429e-19)
(0.253945 1.62732 -2.13055e-19)
(0.0538542 2.29848 1.08407e-19)
(0.0391414 2.66862 0)
(0.060462 2.39518 -1.67371e-19)
(0.0439743 2.4193 0)
(0.0794338 2.65371 2.19102e-20)
(0.0551383 2.68985 0)
(-0.0132928 1.46051 5.35558e-19)
(0.14115 1.63272 0)
(0.14195 1.33943 0)
(0.0184026 1.271 -6.0367e-19)
(-0.0823787 2.70193 -3.88941e-20)
(0.022485 2.70343 -3.20033e-19)
(-0.0528591 2.73057 -2.0098e-21)
(-0.378905 2.20596 -2.65699e-19)
(-0.196646 2.09986 2.08231e-19)
(-0.148021 1.08936 0)
(-0.113348 1.08787 0)
(0.167696 1.74289 -5.83204e-19)
(0.188208 1.49645 -6.00824e-19)
(0.155968 1.68045 7.55927e-19)
(0.151516 1.73862 0)
(-0.205404 2.04098 1.37554e-19)
(-0.166234 2.16426 -6.14756e-20)
(-0.204531 2.22627 2.41568e-20)
(-0.383726 2.1025 3.21503e-19)
(-0.258684 2.39333 7.39124e-20)
(-0.267873 2.45406 -3.81686e-19)
(1.02131 0.0219758 -2.90738e-19)
(1.01793 0.0274271 2.92488e-19)
(1.01408 0.0201234 0)
(1.01252 0.0503755 4.2132e-19)
(0.995636 0.0391341 -4.95507e-19)
(0.963342 0.0228674 5.74718e-19)
(1.01219 0.0858291 -5.44578e-20)
(1.04096 -0.00706407 0)
(1.04563 -0.00690073 2.42508e-19)
(1.03624 -0.0132373 -2.42523e-19)
(1.06337 0.0387917 -1.32745e-20)
(1.05663 0.0178796 1.18495e-19)
(1.06075 0.04957 0)
(1.05604 0.0409204 -4.44037e-20)
(1.03966 0.0320717 0)
(1.03485 0.0288894 0)
(1.02714 0.0123257 0)
(1.02507 0.0150662 0)
(1.04695 0.0263016 9.25321e-20)
(1.0433 0.0178318 -2.10571e-19)
(1.05339 0.0224566 -9.27821e-20)
(1.05207 0.0244506 -1.0841e-19)
(1.06539 0.0581979 1.92383e-19)
(1.08032 0.0517758 0)
(1.08698 0.0948722 0)
(-0.196661 2.02017 4.80063e-20)
(-0.14497 1.89804 9.08604e-22)
(-0.159669 1.92865 0)
(-0.110289 2.02131 -4.80399e-20)
(-0.0774285 1.94195 -7.03764e-22)
(-0.0941838 1.97689 6.26298e-21)
(-0.178456 2.46864 -3.53154e-19)
(-0.195532 2.30446 1.17982e-20)
(-0.24963 2.37186 -7.71245e-20)
(-0.113893 2.31858 1.43552e-19)
(-0.126041 2.33756 3.41104e-20)
(-0.288857 1.75386 -3.11892e-21)
(-0.257671 1.85618 -3.11269e-20)
(0.370344 1.40275 -4.13156e-19)
(0.368537 1.35278 -3.95303e-19)
(0.637613 1.41294 -5.94539e-19)
(0.508165 1.47736 -3.18744e-19)
(0.555861 1.45141 0)
(0.589501 2.40776 1.22313e-19)
(0.656271 2.39481 2.21848e-19)
(0.41401 2.50498 7.97907e-20)
(0.40855 2.55069 -1.62773e-19)
(0.517233 2.50731 2.6685e-19)
(0.546609 2.44783 0)
(0.49055 2.49504 -3.51913e-19)
(0.246206 2.58129 5.77578e-19)
(0.354541 2.55585 -8.14303e-20)
(0.284505 2.63856 -8.8195e-19)
(0.925455 2.37943 2.21703e-19)
(0.824695 2.37344 0)
(1.01038 0.000156547 9.8445e-21)
(1.01479 -0.00568737 -8.02744e-21)
(1.01787 -0.00386249 -1.45255e-19)
(1.01487 -0.000692991 1.45471e-19)
(1.01214 0.00100037 0)
(0.62223 1.2763 0)
(0.633055 1.16157 0)
(0.732891 1.07327 0)
(0.627458 1.12261 0)
(1.184 2.63425 5.71948e-20)
(1.07025 2.37119 0)
(0.844285 2.2305 -1.83621e-21)
(0.823755 2.4802 0)
(0.918857 2.56666 2.6233e-20)
(0.955299 2.52043 0)
(0.842833 0.14663 0)
(0.812848 0.140216 8.36341e-20)
(0.927532 0.124544 4.27644e-19)
(0.863927 0.116434 -1.71002e-19)
(0.846802 0.0650028 -5.15246e-19)
(1.04329 0.217335 -2.40976e-19)
(0.959661 0.272701 -1.57145e-20)
(0.904592 0.272851 3.89522e-19)
(0.976204 0.199419 2.8724e-19)
(0.938504 0.159602 -5.38155e-19)
(0.911897 0.169147 6.97956e-20)
(0.939574 0.233015 -1.35186e-19)
(0.915966 0.192705 0)
(0.974756 0.157286 -2.57678e-19)
(1.02013 0.165173 0)
(1.01315 0.191455 0)
(1.07976 0.110295 8.11872e-20)
(1.04433 0.158102 -1.307e-20)
(1.03758 0.220106 -1.26246e-19)
(1.07331 0.192367 0)
(1.02755 0.0326362 2.20052e-19)
(1.04644 0.0477055 2.60843e-19)
(1.0418 0.0328528 -2.17364e-19)
(1.04521 0.0535049 -1.759e-19)
(1.02369 0.0561523 -2.96304e-19)
(0.976034 0.126712 0)
(0.992728 0.0794837 0)
(0.969168 0.0426687 -2.07888e-19)
(0.931729 0.05885 8.65139e-20)
(1.03244 0.0860979 2.47261e-19)
(1.04939 0.111192 -2.49478e-19)
(1.05461 0.138372 2.28455e-19)
(1.02044 0.125598 0)
(1.05898 0.0989914 0)
(1.04706 0.0809441 -1.03813e-19)
(1.04238 0.0826288 -1.98123e-19)
(0.579267 1.08458 -9.66692e-20)
(0.618424 1.43733 1.98134e-19)
(1.15781 2.75755 1.04505e-19)
(1.22529 3.09553 -7.14782e-20)
(1.24863 2.73472 5.68249e-19)
(1.28118 2.71867 -3.42724e-19)
(1.20829 2.3555 -8.56856e-21)
(1.21144 2.99936 1.9717e-19)
(1.22949 2.96438 -2.19231e-19)
(1.21761 3.24925 -2.69744e-19)
(1.37999 2.98112 3.73485e-19)
(1.37285 2.89852 0)
(0.53079 0.857406 -1.29702e-20)
(0.157601 1.27847 3.75283e-19)
(0.526713 0.502354 3.49024e-19)
(0.365396 0.270558 3.81825e-19)
(0.545242 0.40433 4.04848e-19)
(0.553682 0.486866 -6.27731e-19)
(0.555448 0.489193 5.15458e-19)
(0.512248 0.435814 -2.09828e-19)
(0.452367 0.371928 4.81715e-19)
(0.77624 0.251216 5.75174e-19)
(0.733529 0.29194 0)
(0.728138 0.227426 1.07078e-20)
(0.720704 0.516675 1.89717e-19)
(0.687398 0.486559 -7.01212e-19)
(0.614814 0.478314 1.79966e-20)
(0.624945 0.466394 0)
(0.666075 0.720686 1.50007e-19)
(0.801918 0.75238 5.79372e-20)
(0.725039 0.831124 -7.55443e-20)
(0.843796 0.788949 -1.65276e-20)
(0.875283 0.832519 1.42339e-20)
(0.884051 0.832733 -1.45778e-20)
(0.81734 0.634556 -2.21559e-19)
(0.893048 0.688656 1.53706e-20)
(0.9468 0.700899 0)
(0.936854 0.678177 -1.3949e-20)
(0.986037 0.312332 6.12757e-20)
(1.10354 0.285811 1.81152e-21)
(1.02738 0.252025 9.83828e-20)
(0.968251 0.344511 -1.41561e-19)
(1.01542 0.406085 0)
(1.06583 0.395608 0)
(0.890736 0.352869 4.92828e-21)
(0.834468 0.283075 0)
(0.852743 0.276187 2.00605e-19)
(0.886806 0.279325 -5.86446e-21)
(0.90767 0.422827 7.64599e-19)
(0.869051 0.485484 1.93289e-19)
(0.870406 0.450769 -2.50126e-19)
(0.800451 0.438285 -2.68381e-19)
(0.785438 0.438843 1.8319e-19)
(0.75243 0.421835 -1.79764e-19)
(1.02678 -0.000736267 2.32762e-19)
(1.01992 -0.00013472 0)
(1.01839 0.000898846 1.55268e-19)
(1.02215 -0.00155996 -3.24988e-21)
(1.02211 0.00407337 1.69493e-19)
(1.02047 0.0107087 -3.55845e-19)
(1.02138 0.0102554 0)
(1.02087 0.010729 -7.52104e-20)
(1.01584 0.00752012 1.88415e-19)
(1.01669 0.0101752 -9.48301e-20)
(1.01772 0.00933401 7.00678e-20)
(0.0735325 1.0821 0)
(0.179213 1.2382 0)
(0.097162 1.16093 0)
(0.0792742 1.02454 0)
(0.130041 1.37836 -7.00067e-19)
(0.120985 1.3518 2.1668e-19)
(0.123948 1.48118 1.57703e-19)
(0.0970197 1.38678 -1.85882e-19)
(0.184693 1.5145 5.07303e-19)
(0.187158 1.48628 -3.9032e-19)
(0.170166 1.36309 -3.00569e-20)
(0.207835 1.3528 -6.34496e-19)
(0.195852 1.27696 7.3197e-20)
(0.208175 1.27743 -6.84867e-20)
(0.0916852 2.36591 1.90625e-19)
(0.0891283 2.42336 0)
(0.151312 2.0681 -5.00493e-20)
(0.0745552 1.7186 -1.18411e-19)
(0.232544 2.05503 3.03855e-20)
(0.213364 2.45638 0)
(0.268707 2.40816 -1.11982e-19)
(0.303695 2.40781 7.97937e-20)
(0.241903 2.01105 1.26301e-19)
(0.147498 2.18963 -4.73966e-21)
(0.138152 2.31629 0)
(0.122769 2.01137 5.52814e-19)
(-0.0319328 2.5377 6.35607e-19)
(0.0316482 2.36029 0)
(0.0293107 2.51442 -2.68204e-20)
(0.0202226 2.3556 -2.52446e-19)
(-0.169887 1.28168 -8.11527e-20)
(-0.214227 1.27923 1.23699e-18)
(-0.25471 1.34991 -2.8085e-19)
(-0.234819 1.43645 -4.96358e-19)
(-0.0587349 1.43961 0)
(-0.284514 1.29858 0)
(-0.216458 1.34051 -1.53768e-19)
(-0.307258 1.37068 4.86717e-20)
(-0.285014 1.30684 0)
(-0.198759 1.19117 -1.43191e-19)
(-0.146549 1.23676 2.55129e-19)
(1.04121 0.00478831 0)
(1.04305 0.00185291 -2.26259e-20)
(1.04335 0.0143213 -1.67383e-19)
(1.05049 0.0104805 0)
(1.04984 0.0084274 0)
(1.03669 0.00604932 -6.44457e-21)
(1.0323 0.00793177 2.7583e-19)
(1.03262 0.0121614 3.3316e-19)
(1.02691 0.0186911 0)
(1.02526 0.0198747 0)
(1.0383 0.0202077 1.68415e-19)
(1.03061 0.0245114 0)
(1.02803 0.0233521 0)
(-0.373792 2.07172 0)
(-0.308544 1.87935 -1.65754e-20)
(-0.325604 2.01478 -3.61255e-20)
(-0.310221 1.48938 0)
(-0.381995 1.81844 -7.63498e-20)
(-0.319579 1.70951 9.57305e-21)
(-0.307463 1.56853 0)
(0.38733 1.68751 0)
(0.36777 1.28293 6.50267e-19)
(0.303573 1.33724 0)
(0.415596 1.27609 -4.55473e-19)
(0.459698 1.44265 0)
(0.438745 1.39129 3.9722e-19)
(1.02766 2.70526 -4.06491e-21)
(0.950123 2.41462 -2.94081e-19)
(0.888873 2.17044 3.17031e-19)
(0.838172 2.3671 1.17632e-19)
(0.843143 2.51975 0)
(0.908676 2.51473 0)
(0.904007 2.37324 0)
(0.894776 2.34729 -4.43008e-19)
(0.689486 2.49485 -1.46487e-20)
(0.799574 2.48757 -1.30165e-20)
(0.808474 2.45988 9.97239e-21)
(0.687852 2.37471 0)
(0.789209 2.37443 0)
(0.751424 2.38307 -2.26165e-19)
(0.766508 2.50537 0)
(0.586893 1.09003 0)
(0.483523 0.942347 2.29459e-21)
(0.535077 0.971407 -1.16814e-21)
(0.514138 1.0638 0)
(0.514967 1.02048 -7.95679e-22)
(0.747154 0.854551 1.40065e-20)
(0.760347 0.998027 0)
(0.733929 0.953878 -6.38083e-20)
(0.610478 1.02121 0)
(0.619447 0.936765 0)
(1.16246 2.77739 5.84047e-20)
(1.14052 2.84177 1.25475e-19)
(0.934841 2.36928 -2.86075e-19)
(0.901887 2.34368 3.17911e-20)
(1.12588 2.74855 0)
(1.07699 2.71912 -4.3644e-20)
(1.08279 2.49513 -7.40917e-20)
(0.978625 2.23213 -2.9772e-20)
(0.492558 1.3707 0)
(0.502203 1.07289 8.52068e-20)
(0.541398 1.14999 0)
(0.8578 0.218856 0)
(0.819924 0.173828 0)
(0.777835 0.163095 0)
(0.849773 0.224299 -3.15498e-19)
(0.796198 0.222921 1.94561e-19)
(0.939686 0.0505635 -1.77689e-19)
(0.952997 0.0994085 0)
(0.925464 0.104678 7.98706e-20)
(0.887583 0.0810817 3.27396e-19)
(0.875619 0.046331 -2.00891e-19)
(1.16768 3.37462 -9.84439e-19)
(1.21374 3.29404 0)
(1.16732 3.40118 -1.93544e-18)
(0.653881 3.56126 1.66216e-18)
(0.881755 3.12637 3.78546e-19)
(0.510685 0.885081 2.29494e-19)
(0.435937 0.876367 0)
(0.360342 0.535616 -8.48106e-20)
(0.457996 0.691485 -3.86145e-19)
(0.534189 0.501598 -1.11952e-19)
(0.516326 0.530975 1.31078e-19)
(0.659505 0.530637 2.67344e-19)
(0.686831 0.549653 0)
(0.646369 0.615849 0)
(0.59708 0.551179 0)
(0.94502 0.58512 -5.34224e-20)
(0.873101 0.530606 -1.8682e-19)
(0.898251 0.563907 8.64694e-20)
(0.925828 0.501787 -1.37311e-19)
(1.03002 0.463078 0)
(1.041 0.554538 -5.04391e-21)
(0.824708 0.39063 -4.04931e-19)
(0.829306 0.373645 6.08449e-19)
(0.780709 0.390161 3.17659e-19)
(0.774091 0.356276 -3.59666e-19)
(0.82884 0.306153 -2.66085e-19)
(0.782394 0.310046 3.27294e-19)
(1.02595 0.00555424 -1.79776e-19)
(1.0258 0.00564425 3.68619e-19)
(1.03058 -0.000806439 2.20358e-19)
(1.03272 0.000701565 -2.67979e-19)
(1.03373 0.00458831 0)
(1.03031 0.00552543 -4.31092e-19)
(0.109699 1.70227 -6.67064e-20)
(0.120953 1.63857 0)
(0.0979661 1.72081 -5.19218e-19)
(0.090646 1.69591 4.75976e-19)
(0.117199 1.52805 -2.89415e-19)
(0.176328 1.54316 0)
(-0.465853 2.07432 0)
(-0.428041 1.71456 6.85251e-20)
(-0.450689 1.67533 -6.20363e-20)
(-0.385718 1.83938 -2.59689e-20)
(-0.379124 2.09725 8.86392e-20)
(-0.415438 2.11992 1.49536e-19)
(0.486559 1.38246 4.24309e-19)
(0.477352 1.3871 4.92225e-19)
(0.431367 1.27495 4.21653e-19)
(0.421195 1.29663 -2.58828e-20)
(0.612047 1.27633 0)
(0.532344 1.37336 5.40062e-19)
(0.552849 1.39351 -5.2517e-19)
(0.440686 1.25949 -4.07567e-19)
(0.489024 1.21539 0)
(0.544814 1.17814 0)
(0.656886 2.4535 2.15075e-20)
(0.668932 2.47477 5.31206e-19)
(0.716029 2.49134 -3.65499e-19)
(0.626439 2.47394 -1.19081e-19)
(0.562896 2.57027 9.85541e-20)
(0.514634 2.54099 -2.9886e-19)
(0.962678 2.37578 -1.70801e-19)
(1.00697 2.39728 0)
(0.903441 2.14715 -2.4362e-19)
(1.04554 2.69966 0)
(1.04744 2.6869 0)
(0.626645 2.29265 2.41947e-19)
(1.04743 3.17536 4.84497e-19)
(0.918449 3.04433 -4.30373e-19)
(0.294194 0.960918 0)
(0.348503 0.833386 -1.56089e-19)
(0.498964 0.787027 -5.34847e-19)
(0.407236 2.04048 0)
(0.473338 2.79158 -2.63501e-19)
(0.434079 2.55632 0)
(0.679545 0.663132 -3.11041e-19)
(0.74929 0.658647 3.94332e-19)
(0.77394 0.610969 2.787e-19)
(0.672052 0.636236 4.62369e-20)
(0.719844 0.59008 -1.88262e-19)
(1.00757 2.78233 -3.68326e-19)
(1.0406 2.83751 2.90215e-19)
(0.652058 2.18875 5.09212e-20)
(0.608629 1.73915 -6.72522e-20)
(0.703757 1.92748 1.13375e-19)
(0.991783 2.46529 -6.82395e-20)
(0.994442 2.4634 -1.65719e-19)
(0.673913 1.87585 -5.35653e-21)
(0.458857 1.3534 -1.1917e-19)
)
;

boundaryField
{
    wall-4
    {
        type            noSlip;
    }
    velocity-inlet-5
    {
        type            fixedValue;
        value           uniform (1 0 0);
    }
    velocity-inlet-6
    {
        type            fixedValue;
        value           uniform (0 3 0);
    }
    pressure-outlet-7
    {
        type            zeroGradient;
    }
    wall-8
    {
        type            noSlip;
    }
    frontAndBackPlanes
    {
        type            empty;
    }
}


// ************************************************************************* //
