/*--------------------------------*- C++ -*----------------------------------*\
| =========                 |                                                 |
| \\      /  F ield         | OpenFOAM: The Open Source CFD Toolbox           |
|  \\    /   O peration     | Version:  2412                                  |
|   \\  /    A nd           | Website:  www.openfoam.com                      |
|    \\/     M anipulation  |                                                 |
\*---------------------------------------------------------------------------*/
FoamFile
{
    version     2.0;
    format      ascii;
    arch        "LSB;label=32;scalar=64";
    class       volScalarField;
    location    "2";
    object      p;
}
// * * * * * * * * * * * * * * * * * * * * * * * * * * * * * * * * * * * * * //

dimensions      [0 2 -2 0 0 0 0];

internalField   nonuniform List<scalar> 
918
(
0.835613
0.485836
0.0302066
0.82796
-0.00106109
0.441178
-0.650728
0.551372
0.827007
-0.0761626
0.0403002
0.694513
0.315917
0.0797945
-1.0675
0.0321382
0.753205
-0.794343
0.735469
0.00617062
0.204005
0.88364
0.805443
0.703083
0.719184
0.0833813
0.117313
0.00479972
-0.00321521
-0.0130566
0.0118665
0.025444
0.0241803
0.321601
0.37557
0.398863
0.691736
0.414889
-0.410687
-0.467899
-0.50721
-0.84365
0.588518
0.618157
-0.0299729
0.503715
0.45824
0.724628
0.810327
0.827069
0.800236
0.818881
0.861382
0.315538
-0.10775
-0.151777
-0.0327577
-0.0277014
0.117448
0.0350576
0.017294
0.049453
0.0235613
0.638888
0.692636
0.684538
0.704152
0.69685
0.428036
0.381424
0.413857
0.363664
0.371405
0.31777
0.297015
0.103655
0.117948
0.0530116
0.0451247
-1.23659
-1.72885
-0.751792
-0.614954
0.0106595
0.028392
0.056807
0.751761
0.761314
0.729269
0.730992
0.68356
-0.660403
-0.912834
0.749653
0.747167
0.84306
0.795634
0.778953
0.725953
0.00732809
0.0166339
0.00936336
0.0289276
0.00984282
0.155089
0.237698
0.679772
0.727212
0.685298
0.709817
0.695679
0.460848
0.743904
0.743875
-0.0402323
0.0268516
0.0657246
0.048022
0.173321
0.148123
0.244983
0.290076
-0.00281487
0.00467236
0.0407331
0.013149
0.0247033
0.687505
0.675861
0.714264
0.691149
0.712772
0.308202
0.165783
0.475647
0.598431
-0.205157
-0.232403
-0.714311
-0.679794
-0.932245
0.810784
0.639139
0.670715
-0.0403258
0.00714616
-0.152085
0.0831854
0.0176295
0.721898
0.720725
0.709936
0.731884
0.728173
0.737299
0.818066
0.819594
0.830331
0.3291
0.382014
0.296846
0.246664
-0.407847
-0.208885
-0.401205
0.00747793
0.0251439
0.118992
0.136188
0.123088
0.08927
0.0177081
0.0346828
0.0459316
0.0141747
0.0233425
0.639902
0.619285
0.644449
0.652708
0.70314
0.691246
0.689569
0.698574
0.25303
0.236657
0.222837
0.208287
-2.22174
-3.98494
-0.455997
-0.374992
0.0143307
0.00996786
0.00514785
-0.00761755
-0.000167927
-0.00887656
0.0685429
0.061222
0.0449724
0.0571377
0.754574
0.766049
0.683494
0.732358
0.605692
0.626865
0.727688
0.738007
0.744883
0.740566
0.0274697
0.011282
0.0170999
0.403313
0.269671
0.333923
0.431893
0.351053
0.503288
0.534538
0.755653
0.749817
0.767945
-0.00361929
0.00071902
0.275229
0.30605
0.288135
0.271448
0.3074
0.327557
0.333616
0.649786
0.680459
0.67351
0.716877
0.713986
0.721849
0.711867
0.702923
0.70134
0.0464195
-0.213675
0.772808
0.716625
0.642416
0.710289
0.77797
0.801358
0.71713
0.67887
0.705714
0.162519
0.15354
0.217095
0.195367
0.571385
0.595747
0.580642
0.192972
0.119852
0.149651
0.142242
0.115403
0.165842
-0.200731
-1.03879
-0.562979
-0.146644
-0.291878
-0.192336
0.0654947
0.0934215
0.0747445
0.704085
0.748543
0.411242
0.545276
0.519376
0.0474384
0.0402009
0.128741
0.0629197
0.0578476
0.0964711
0.0574846
0.778894
0.764631
0.807967
0.770192
0.797287
0.315908
0.242737
0.203472
0.158579
0.167691
0.164771
0.730775
0.758131
0.782834
0.70653
0.713617
-0.00178915
0.00755277
0.781914
0.810788
-0.0271983
-0.00604962
-0.298952
-0.807273
0.338862
0.748949
0.732634
0.769432
-0.0617679
0.257987
0.0295695
0.122266
0.0717963
0.683192
0.640615
0.59316
-0.00271158
0.0416192
0.0147706
-0.232043
0.779872
0.740877
0.780224
0.785172
0.781359
0.00608238
0.00896011
0.02528
0.000239054
0.0178175
0.0413911
0.703998
0.697794
-0.131171
0.76907
0.770671
0.77686
0.763569
0.781403
0.756405
0.0237645
0.0297931
0.0512789
0.418166
0.530234
-0.068707
0.140812
-0.286559
-0.350781
-0.435522
-0.16626
-0.0591773
-0.186716
0.0567582
0.627805
0.507536
0.396268
0.216458
0.392706
0.335646
0.738787
0.747231
0.729216
0.729533
0.759961
0.724359
0.782224
0.749502
0.774918
0.79562
0.0186765
-0.00795408
-0.0332544
-0.120483
0.302915
0.385195
0.221614
0.277296
0.160181
0.0126067
0.047333
0.0242992
0.0298029
0.0719247
0.108077
0.0797051
0.13917
0.0906133
0.106922
0.0484073
0.0933677
0.0571362
0.664026
0.67399
0.675153
0.713232
0.653544
0.649893
0.623346
0.63993
0.651313
0.579605
0.595757
0.588747
0.0124622
0.0246511
0.0237287
0.0687761
0.0420297
-0.0291433
-0.0229364
-0.0298408
-0.009138
-0.00947809
0.0133686
0.0137465
-0.16417
-0.316484
0.632796
0.530147
0.283307
0.729025
0.755966
0.726989
0.760769
0.789042
0.815691
0.786145
0.755723
0.707333
0.716612
0.690446
0.708684
-0.0465654
-0.178084
-0.00357892
-0.0735322
0.398756
0.732874
0.544986
0.499475
0.491537
0.627976
-0.607498
-0.439165
0.155302
0.0861855
-0.600342
-0.508178
-0.631065
-0.418242
-0.211793
-0.0448996
0.0235056
0.0525048
0.0433316
-0.0676959
-0.0322774
0.661136
0.135789
0.127272
0.416912
0.29471
0.0638433
0.657264
0.675565
0.468884
0.411623
0.595093
0.561347
0.575609
0.560897
0.589758
0.609339
0.439406
0.435589
0.381212
0.705371
0.613849
0.623001
0.581022
0.743064
0.748965
0.730681
0.722238
0.724842
0.704501
0.716838
0.704679
0.722646
0.742213
0.731759
0.727038
0.00876251
0.0198186
-0.0381301
-0.131083
-0.0812247
-0.165577
-0.0357091
0.133525
0.045514
0.250589
0.35311
0.134816
-0.0945992
0.0333469
0.0273866
0.211104
0.194899
0.139168
0.177234
0.176319
0.14257
0.241719
0.223128
0.0879088
0.0921397
0.0651982
0.0334929
0.145015
0.12167
0.159497
0.0816271
0.0919967
0.0507152
0.0353835
0.0935787
0.101571
0.095843
0.0829203
0.0297234
0.0430276
0.00643009
0.0351217
0.116425
0.0979503
0.699601
0.689604
0.688374
0.666351
0.713825
0.704748
0.636328
0.696887
0.695456
0.686855
0.639927
0.629547
0.633562
0.640333
0.661022
0.659035
0.711207
0.704451
0.656358
0.669847
0.61525
0.634905
0.612765
0.612791
0.611931
-0.00620654
0.00245959
-0.0128448
0.000842851
0.0239934
0.0496063
0.0768144
0.0484012
0.0781651
0.0649787
0.0664545
-0.00553031
0.0131259
-0.00226002
0.109671
-0.151236
-0.177275
-0.299808
0.624015
0.674319
0.533476
0.455583
0.529155
0.573164
0.604105
0.418901
0.456075
0.495844
0.732379
0.719076
0.713965
0.717356
0.742929
0.734677
0.732596
0.0822975
0.24021
0.270268
0.40382
0.489262
0.508988
0.47706
0.47757
0.563571
0.543865
0.723687
0.739672
0.714653
0.735047
0.74801
0.56031
0.666298
0.676881
0.699525
0.67193
0.683861
0.694143
0.679486
0.63734
0.63918
0.650421
0.593885
0.60945
0.600045
0.606067
0.652517
0.64609
0.656251
0.642688
0.664689
0.656793
0.692978
0.730079
0.709712
0.61148
0.588303
0.612363
0.628937
0.607593
0.617093
0.609023
0.481263
0.587578
0.478524
0.219953
0.312333
0.0637096
0.0726669
0.233336
0.414351
-0.0201823
-0.129273
-0.469958
0.719283
-0.814273
-0.252469
-0.68505
0.357048
0.372029
0.278657
0.18373
0.271402
0.6855
0.691202
0.70383
0.58162
0.545246
0.452617
0.49683
0.762276
0.601565
0.607
0.588957
0.432399
0.503571
0.598757
0.560493
0.483881
0.506297
0.603013
0.495444
0.51423
0.597198
0.540765
0.546714
0.627781
0.666536
0.67243
0.642255
0.574024
0.602619
0.596189
0.616944
0.62968
0.619281
0.717369
0.714372
0.703155
0.71299
0.719583
0.721277
0.694042
0.730354
0.742127
0.751371
0.741295
0.0348955
0.0557928
0.0387357
0.0088959
0.0881432
0.0683982
0.00366453
-0.0309142
0.106026
0.0967382
0.0508252
0.0289603
0.0714317
0.0708339
0.144009
0.192317
0.203616
0.146421
0.283251
0.364529
0.415223
0.367243
0.255083
0.252254
0.298682
0.0955533
0.106684
0.0932317
0.0899172
0.097376
0.00625162
0.0238978
0.00610842
0.0906723
0.0705618
-0.0341898
0.0294643
0.0300871
-0.00768076
0.018942
0.0303197
0.679903
0.658053
0.628844
0.610944
0.634184
0.640953
0.682459
0.699877
0.713762
0.701999
0.694944
0.687447
0.702044
0.0132917
0.0472519
0.0500913
0.0300802
0.0251629
-0.0132276
0.00672416
0.366144
0.203329
0.253932
0.146202
-0.0273957
0.0235591
0.602423
0.707492
0.736712
0.701927
0.626282
0.639195
0.699424
0.732628
0.477184
0.578125
0.513487
0.651524
0.674497
0.70062
0.608628
0.438141
0.631642
0.726242
0.454791
0.478904
0.535609
0.465026
0.505073
0.486738
0.637406
0.496228
0.491633
0.534296
0.501811
0.546
0.576645
0.57417
0.643498
0.397971
0.396962
0.306207
0.690409
0.717111
0.733892
0.694688
0.713798
0.707118
0.699309
0.716937
0.743285
0.744011
-0.240142
-0.0194163
-0.82633
-0.611588
-0.141864
0.69432
0.556356
0.315822
0.580577
-0.0099514
0.278577
0.493181
0.546873
0.576833
0.45994
0.548113
0.581935
0.567056
0.580899
0.489058
0.454373
0.65242
0.656856
0.638836
0.6526
0.651013
0.66465
0.684825
0.717223
0.675057
0.704975
0.702299
0.716217
0.150788
0.105731
0.135816
0.128705
0.105402
0.111508
-0.0222008
-0.0191652
0.0467889
0.053965
0.0533263
0.0898003
0.38899
0.398731
0.211759
0.334062
0.118801
0.0307089
-0.0228841
0.129388
0.246348
0.262207
0.506373
0.601172
0.56324
0.560828
0.492714
0.563013
0.696133
0.645365
0.695701
0.617599
0.610499
0.46978
0.122401
0.114377
-0.177597
0.356511
0.554085
0.50128
0.143869
-0.0198016
0.682671
0.629763
0.596692
0.618825
0.593007
0.300878
0.360711
0.71822
0.911483
0.585215
0.526316
0.500444
0.661094
0.589848
)
;

boundaryField
{
    wall-4
    {
        type            zeroGradient;
    }
    velocity-inlet-5
    {
        type            zeroGradient;
    }
    velocity-inlet-6
    {
        type            zeroGradient;
    }
    pressure-outlet-7
    {
        type            fixedValue;
        value           uniform 0;
    }
    wall-8
    {
        type            zeroGradient;
    }
    frontAndBackPlanes
    {
        type            empty;
    }
}


// ************************************************************************* //
