/*--------------------------------*- C++ -*----------------------------------*\
| =========                 |                                                 |
| \\      /  F ield         | OpenFOAM: The Open Source CFD Toolbox           |
|  \\    /   O peration     | Version:  2412                                  |
|   \\  /    A nd           | Website:  www.openfoam.com                      |
|    \\/     M anipulation  |                                                 |
\*---------------------------------------------------------------------------*/
FoamFile
{
    version     2.0;
    format      ascii;
    arch        "LSB;label=32;scalar=64";
    class       surfaceScalarField;
    location    "2";
    object      phi;
}
// * * * * * * * * * * * * * * * * * * * * * * * * * * * * * * * * * * * * * //

dimensions      [0 3 -1 0 0 0 0];

oriented        oriented;

internalField   nonuniform List<scalar> 
1300
(
3.75095
5.62643
-6.7835
3.75095
-6.37214
5.62643
-6.27112
6.27112
-1.58742
1.58742
1.88489
1.86606
-5.81103
5.81103
-5.62571
5.62571
-3.05304
3.05304
-5.24835
5.24835
-5.14341
5.14341
4.14698
-4.14698
-5.30414
5.30414
-2.17183
2.17183
-6.36675
6.36675
3.16948
-3.16948
-5.63297
5.63297
-1.52803
1.52803
-0.53678
4.28773
3.21417
3.21417
-2.77067
2.77067
-5.05654
5.05654
6.19095
-6.19095
9.85317
-9.85317
-3.06967
-3.27583
1.27339
-8.00517
-5.09875
-5.09875
-8.4387
8.4387
-2.81227
2.81416
3.19864
-3.19864
-2.23552
2.23552
-5.93173
-0.33939
-5.93173
6.50623
-0.235112
6.50623
-1.73135
0.143924
-1.73135
4.70774
-4.70774
1.41523
0.172188
1.41523
3.1902
-3.1902
-1.88623
3.77112
1.86472
-1.83746
6.12519
-1.91349
3.77955
-4.88523
4.88523
-5.94861
0.137574
-5.94861
5.75243
0.0586004
5.75243
-5.49478
5.49478
-5.62724
0.00153766
-5.62724
5.60977
0.0159302
5.60977
3.26766
-3.26766
-3.09976
0.0467248
-3.09976
3.07652
-0.0234834
3.07652
0.356363
5.27007
-5.98279
8.79695
-5.27007
0.0217198
5.2553
-0.00695348
5.2553
-5.18291
0.0395015
-5.18291
5.11925
0.0241588
5.11925
3.9229
0.224084
3.9229
-4.48262
0.335642
-4.48262
-3.20441
-3.34011
-5.36026
0.0561218
-5.36026
-2.22079
0.0489625
-2.22079
2.09958
0.0722467
2.09958
-3.90513
3.90513
-6.56165
0.194904
-6.56165
3.1211
0.0483757
3.1211
1.87218
1.87878
5.62313
-5.62313
2.45365
-5.62531
-0.00765605
-5.62531
-5.61992
-4.23325
5.61992
0.0130434
-1.27802
-0.250008
-1.27802
3.23437
-0.0201932
3.23437
2.96029
0.116229
-2.96029
0.18962
3.68671
-3.68671
2.20086
0.569814
2.20086
-5.5264
5.5264
5.10416
0.0150852
-5.10416
0.0476255
6.10229
0.0886531
6.10229
-6.20597
0.0150233
-6.20597
3.32014
-6.59597
-3.28287
5.19932
0.104818
-5.19932
0.100571
3.22706
-0.0284234
3.22706
-3.16177
3.16177
-3.19249
-0.00614611
-3.19249
-2.00526
-0.230258
-2.00526
2.47215
-0.23663
2.47215
-5.45989
-0.471833
-5.45989
-6.62766
0.0660115
6.62766
-0.121432
3.00984
-3.00984
-1.85859
0.127245
-1.85859
-5.00413
-0.455768
5.00413
-0.296382
-4.42573
-0.282013
-4.42573
-3.20797
0.0154751
3.20797
-0.0177708
3.16142
0.0729459
-3.16142
-0.0287771
-1.87395
3.75272
-1.87701
3.74173
-4.77696
-0.108273
-4.77696
5.1151
-0.229876
5.1151
6.19213
0.17462
-6.19213
0.243522
5.7251
0.0273265
5.7251
-5.45528
-0.0394989
-5.45528
5.57159
-0.0768149
5.57159
5.62353
0.101573
-5.62353
-0.00371126
5.61088
-0.00110684
5.61088
3.33202
-0.0643642
3.33202
-3.21799
-0.0496724
-3.21799
3.16933
-3.16933
3.0804
0.0889222
-3.0804
-0.0193594
-11.0369
11.0519
0.00755162
-11.0444
5.26285
5.26285
3.13496
0.787938
3.13496
-4.87003
0.387412
-4.87003
3.26324
-6.54612
3.26478
-6.46919
3.31883
-11.324
3.28603
-6.62614
5.51375
-5.51375
5.46817
0.0455773
-5.46817
0.107912
-2.196
-0.0247951
-2.196
-3.70253
-0.202607
-3.70253
4.23295
-0.327814
4.23295
-3.20856
3.20856
-3.15446
-0.0541001
3.15446
-0.0333539
5.65673
-0.0458466
-5.65673
0.0314169
1.30577
0.109468
-1.30577
0.0277411
3.84954
-0.16283
3.84954
-3.50456
-0.182149
-3.50456
-2.1928
-0.00320108
2.1928
0.00806298
-5.75217
0.225778
-5.75217
-11.1462
0.101776
-11.1532
-6.1042
-6.1042
2.33451
11.1315
-3.21122
-0.00677049
3.21122
0.0158473
3.14488
0.0636833
-3.14488
-0.0168978
-3.16417
-0.00515568
3.16417
-0.00239751
-1.99919
-0.00607869
-1.99919
-2.81223
2.81223
-2.65512
-0.157115
2.65512
-0.182962
3.15591
-0.146069
3.15591
2.03367
0.0659138
-2.03367
0.175078
-4.15932
-0.266413
-4.15932
5.28099
-0.165887
5.28099
-3.38516
-0.119402
3.38516
-0.053139
-0.020262
11.0722
-5.24259
0.0596817
5.24259
-11.1608
11.2205
-2.38915
0.389961
2.38915
0.74581
5.23456
0.291833
-5.23456
0.364529
5.55261
0.0189832
-5.55261
0.0388605
-3.61098
-0.0915507
-3.61098
-4.53805
-0.238903
4.53805
-0.305104
-11.4492
-0.185071
11.6343
-11.4251
5.93725
0.165049
-5.93725
11.3856
-2.93844
-0.0714018
2.93844
-0.126206
3.31956
-0.163658
3.31956
4.04264
-0.193098
-4.04264
-0.116679
-5.33832
-0.116961
5.33832
-0.0573261
-3.45192
-0.159056
3.45192
-0.132356
-4.15313
4.13294
1.97206
-3.32461
-3.27136
-7.55786
1.75863
1.9941
4.21228
-7.05386
-4.27014
-6.95329
7.1095
-6.74497
-7.93742
8.1615
7.45254
-7.73455
-5.83918
5.80583
6.31586
-6.33363
1.84411
1.92702
10.7867
-10.6492
-10.0279
9.91966
10.1099
-10.1083
10.4535
-10.493
-12.1214
12.1404
-5.62395
5.67067
-6.59082
6.54114
-6.64702
6.59388
-3.32225
-3.14693
8.90227
-8.84615
11.611
-11.6187
-11.2267
11.4216
3.27326
0.859673
3.34621
-1.93571
3.77981
-1.84385
3.81591
3.25191
-6.57416
3.29421
-6.56557
5.95773
5.65328
-5.97078
-1.58708
-5.8779
5.84948
-5.78949
5.7871
10.7338
-11.0732
-1.85937
3.78638
-1.88236
3.87646
-3.38277
-2.45642
3.33439
0.877888
5.5134
3.38887
-5.61821
-1.33508
-7.57434
7.38125
-7.70273
7.52058
-0.41977
5.88942
-5.46965
4.63677
-1.80451
7.69393
5.30499
5.6924
5.79357
-5.50174
0.951399
-6.42104
-6.37342
-2.4624
2.58964
2.38596
-2.21377
6.30265
1.14989
6.00627
-5.29163
-2.44292
-5.55804
3.85155
1.95428
3.79745
4.0611
2.25476
4.07658
3.0222
-3.05706
0.0348641
-3.02725
6.04945
0.729317
-5.48366
-4.60578
6.96399
3.82275
7.02259
-7.35296
-3.29621
-7.10944
-6.07352
-3.95442
-6.31242
6.5786
3.34106
6.34873
-7.71051
7.65318
6.7111
3.39876
6.72703
-6.76359
-3.34473
-6.7673
10.2008
-2.74824
-7.45257
-6.82033
-5.30111
6.89714
3.55633
7.40061
4.73982
7.43947
3.54081
6.66001
-7.09714
1.79603
-3.76093
-1.86302
-3.78029
3.59965
2.07103
3.57616
-4.22029
-2.37053
-4.22706
-4.19457
-2.45245
4.25893
2.28221
-4.2642
-3.43853
4.38361
2.21028
3.07543
-7.34558
3.55071
-6.69764
-6.29176
-2.55438
-6.18385
4.02207
2.56529
-6.58736
-2.55209
10.7047
-5.05146
9.11766
-7.25818
-4.3605
-7.22676
-8.83277
-2.39393
-8.76676
-5.21689
5.12534
-5.56898
5.24117
10.5006
-5.89199
-4.60863
-3.96657
-2.36706
3.99535
-0.649138
-3.69933
3.73419
0.0804836
3.89639
4.75607
4.10693
-3.81803
-1.97147
-3.83493
3.80832
1.97878
3.80316
8.53512
2.19865
8.30001
-7.42653
-3.64663
-7.89836
5.75571
-5.98597
2.99192
-2.99512
5.12489
2.39569
-4.96206
-2.61229
5.87535
-3.03624
-2.83911
-13.2423
9.84176
3.40059
-5.54842
-0.911653
0.61638
-5.05405
-2.88337
4.71841
0.973996
10.8158
7.93238
-5.4965
5.72228
6.1378
6.15288
-0.220538
4.03404
-3.64408
4.60913
-0.55209
-4.05704
5.74081
-6.19657
-2.15755
-5.66385
3.50629
-0.190306
1.29995
-1.54995
-2.01974
-0.442655
-1.84466
1.48673
0.899228
1.5962
0.947122
1.64252
-2.62909
0.427332
2.20176
-1.68197
-1.78644
-3.72082
-0.428789
4.14961
5.53578
1.84546
-5.4191
-0.138937
2.73474
-2.6625
-1.20559
-2.51524
1.50622
-2.7118
-3.0923
-2.03518
5.12748
-3.34435
-0.490575
3.28067
0.516783
-3.76927
-2.10863
3.77542
0.301159
-2.93043
5.99901
-3.06859
-4.90189
2.5585
3.49095
4.51277
-4.65207
2.31884
2.33323
-1.16112
5.99342
1.02917
6.02074
-8.94805
5.65184
7.68985
3.73176
-7.86447
0.755027
-8.19302
9.48778
-8.32626
-1.16152
4.76773
4.72005
5.35713
5.1435
-3.51226
8.86939
-1.1493
-7.17696
9.34232
-5.61056
5.62743
-11.238
-10.7709
3.59397
-6.79042
8.36936
-1.57894
-2.29198
-5.41853
9.0824
-0.764312
-8.31809
5.58441
-5.21159
-5.41712
10.6287
-7.95983
8.76186
-2.52001
-6.24185
-6.49909
-3.99388
6.61605
1.03713
-9.68176
11.4778
-3.02175
5.77516
0.951873
5.77405
3.91864
-5.95861
2.03996
4.04119
-6.5612
2.35253
-8.31113
-4.84049
9.42414
-4.58365
-7.39487
-6.58247
-0.812399
1.96311
9.51467
-6.70293
5.28128
1.42165
3.25592
0.547245
-3.34484
-0.435453
0.316745
4.40815
-4.72489
3.89291
4.00914
3.49141
0.916743
3.81624
2.03324
-3.83208
-0.394973
-3.84107
1.38861
-1.55886
-3.44939
4.838
-3.87832
0.428932
-2.65351
-3.38443
6.03793
-4.51652
2.89831
3.1007
4.87709
-4.7718
1.38738
-2.40586
-2.36595
2.49094
-4.0498
1.88165
2.95635
4.09193
0.653402
4.75648
4.66765
-7.32177
0.624127
8.05653
-6.72145
1.55767
5.8818
-6.83895
0.256479
-5.92737
1.15382
-6.20528
-5.43354
6.3823
-8.77623
-4.85569
7.97956
0.320445
-7.85813
-0.908625
-3.73574
-1.48115
-3.8948
-1.79822
-3.77076
-5.31048
-1.15197
-4.15851
3.97337
-4.17983
-2.13259
4.48494
0.756234
-4.55386
4.48246
-4.59221
4.42856
0.181525
3.55267
4.28846
1.9214
-2.39155
4.31295
-6.79159
8.99024
-10.4951
3.70354
4.11267
-7.75931
-6.38246
3.59943
2.15628
3.3628
5.81804
-7.21478
1.39674
-6.47335
7.31444
-0.841091
-9.94875
3.47541
-4.13072
2.69296
0.29896
2.66817
0.70516
2.23667
-2.94183
-2.28996
-2.2819
-2.21168
-3.18672
5.3984
0.989464
-3.21904
2.22957
-3.22334
4.2128
-0.219886
-2.99915
4.99827
-2.7616
5.29723
-3.44323
1.854
3.11375
5.21083
-2.09708
4.08864
-1.69295
1.71037
-3.80744
-1.47635
-2.89187
4.9629
-3.14606
3.57499
-0.238005
3.813
-4.00679
0.970549
-0.515384
3.49375
3.68337
3.9858
-3.06906
2.66075
-4.3537
-1.14669
-3.7003
-0.743944
-1.20548
-4.97005
6.17553
4.8381
-6.04358
-3.22211
6.00845
-2.78634
5.18012
-3.82384
-1.35628
-2.88468
-3.10129
2.89076
1.14328
6.3234
0.117657
-3.9415
-3.52642
-2.78061
4.22432
0.384805
-2.30473
5.70533
1.68835
-0.388409
0.427727
1.16848
1.4785
-1.05077
0.353737
1.12476
-1.19622
1.9831
0.75164
-2.04902
0.204355
-1.45338
2.9596
0.748374
-1.6476
0.596831
2.16228
-2.71437
4.47417
-1.48429
-2.98987
6.63645
1.7582
-3.2425
3.90565
-4.09595
2.54994
-2.97873
-0.692561
-4.78851
-3.63862
-2.22788
4.45745
-3.17052
5.01599
1.36515
-4.87705
6.2422
-3.41667
1.38148
-2.70478
3.45641
-0.796138
-1.90864
2.5481
2.57938
-2.75393
0.238691
-0.205828
2.06499
-2.27082
-0.646815
-2.32878
-4.39569
4.69685
-2.17202
4.49086
2.14093
-1.97032
6.46118
1.78622
-3.75654
-3.11567
-3.60624
-1.42331
3.08946
-0.805372
-5.96193
-7.04722
5.86036
0.160389
-8.97008
10.0663
-1.09625
-5.14733
-0.504512
5.27224
-7.25252
0.691323
-4.9
5.16633
6.19551
6.35589
-8.19337
-0.124724
-4.85231
1.11875
-5.97106
5.8388
-2.76305
6.35702
-6.86257
4.72998
-6.10634
5.19549
-0.775565
5.37823
-3.33827
2.07434
-6.06822
-5.03109
6.94797
-3.54921
7.89984
-4.05775
11.9576
-7.07951
6.95505
5.00255
-1.35493
-5.87183
-6.81143
5.45649
0.143619
5.91767
4.79941
-2.76617
4.40444
2.0159
-4.42175
-2.03391
-6.31534
1.89359
-3.21464
-1.76513
3.65872
3.11196
3.6592
1.29277
-3.22375
6.60734
-7.41974
-2.0237
-3.40984
6.78562
-1.32913
3.78015
-7.19
-2.42512
5.26619
-0.687126
-4.57906
0.625807
-5.48149
2.60317
-8.08467
6.17306
-7.08169
1.27222
-5.40293
-3.28164
-3.40785
-1.38266
-3.20955
-4.60224
3.21958
-1.12684
3.35562
-5.32604
4.63891
-1.9884
5.20798
-3.4116
-0.483194
3.54396
0.8846
6.09258
-0.6918
-5.69066
-0.9171
5.43939
-4.52228
3.30722
-5.66185
-0.222466
3.2804
3.35605
-6.7867
-0.972614
-6.66327
-2.6313
4.78758
3.37716
8.21526
1.00048
5.15714
-0.369565
6.15762
2.99324
2.81028
-3.81272
5.20946
2.36281
6.06635
-0.82231
2.67631
1.84586
1.89482
0.767676
2.21629
1.46708
3.18684
0.245005
-2.0369
3.71729
-6.4979
-0.224207
-5.70996
2.45154
4.66493
-2.21339
4.51051
-4.12571
-0.0117723
2.16817
-0.849285
-1.31889
-1.88886
-1.23769
-0.112932
-1.35173
1.94856
1.60787
-1.83563
-0.0532346
-0.00037739
-3.63824
2.9791
-2.74041
-0.161033
6.08117
-2.38546
0.114644
-1.00398
-2.21414
-2.65679
2.45244
6.05751
0.403666
2.98892
5.10051
2.99188
0.225715
4.34581
-5.92475
-3.96532
-6.04947
-0.210668
5.06157
1.80093
7.71375
6.80347
5.47435
-1.71565
-9.13539
7.2207
-2.01124
6.37961
-1.80055
-6.28412
6.36694
2.62331
-6.68738
-0.394304
-6.67842
-8.68966
-0.448105
5.08702
-5.64447
5.16128
3.68013
0.478387
-2.82511
-0.582741
2.98222
-0.171949
5.98567
-1.6549
-5.97972
7.63462
-3.01003
2.78582
4.93079
0.774533
3.6119
-0.513803
-6.49353
-8.70692
-1.04937
-1.665
-4.03924
0.11037
-1.71824
4.20363
-1.4178
2.84734
6.21682
6.20505
-1.82018
-4.2234
4.60652
-1.75918
4.44587
)
;

boundaryField
{
    wall-4
    {
        type            calculated;
        value           uniform 0;
    }
    velocity-inlet-5
    {
        type            calculated;
        value           uniform -3.75095;
    }
    velocity-inlet-6
    {
        type            calculated;
        value           uniform -5.62643;
    }
    pressure-outlet-7
    {
        type            calculated;
        value           nonuniform List<scalar> 8(6.7835 6.37214 6.34551 6.73178 6.54452 6.60302 6.52802 6.60486);
    }
    wall-8
    {
        type            calculated;
        value           uniform 0;
    }
    frontAndBackPlanes
    {
        type            empty;
    }
}


// ************************************************************************* //
