/*--------------------------------*- C++ -*----------------------------------*\
| =========                 |                                                 |
| \\      /  F ield         | OpenFOAM: The Open Source CFD Toolbox           |
|  \\    /   O peration     | Version:  2412                                  |
|   \\  /    A nd           | Website:  www.openfoam.com                      |
|    \\/     M anipulation  |                                                 |
\*---------------------------------------------------------------------------*/
FoamFile
{
    version     2.0;
    format      ascii;
    arch        "LSB;label=32;scalar=64";
    class       volVectorField;
    location    "2";
    object      U;
}
// * * * * * * * * * * * * * * * * * * * * * * * * * * * * * * * * * * * * * //

dimensions      [0 1 -1 0 0 0 0];

internalField   nonuniform List<vector> 
918
(
(0.938569 -0.0820915 0)
(0.00835293 2.9653 0)
(-0.145039 1.75649 0)
(0.835347 0.11094 0)
(-0.0169843 1.70899 -1.57027e-20)
(-0.0100563 2.94692 -9.04524e-19)
(1.21372 1.64455 5.93433e-19)
(0.532772 0.299662 -1.25773e-20)
(0.973834 -0.00198857 0)
(0.0448833 1.77121 0)
(0.0218461 1.71667 0)
(0.930765 0.0256085 0)
(-0.00538067 2.94672 0)
(0.0190332 2.85049 0)
(-0.0878953 2.84095 8.90157e-19)
(-0.0109223 1.69838 -2.7596e-20)
(0.697616 0.147361 1.16168e-18)
(0.257589 2.02616 5.84421e-19)
(0.96803 0.0463263 0)
(0.0396041 1.72054 0)
(0.810891 0.338763 -1.57599e-19)
(0.866237 -0.0222841 0)
(0.882683 -0.0281713 0)
(1.01224 0.0457357 0)
(0.842053 0.0535366 0)
(0.00843465 2.79216 0)
(-0.0506157 2.91509 1.97137e-19)
(-0.0365587 1.7429 0)
(-0.034302 1.70601 0)
(-0.0737646 1.73013 0)
(0.0215741 1.76137 0)
(-0.0301927 1.71061 1.25931e-20)
(-0.0303855 1.69936 0)
(-0.0200315 2.98332 -2.75223e-23)
(-0.0188412 3.0046 7.01039e-19)
(0.00212591 3.00056 0)
(0.97299 -0.00433025 0)
(0.754739 0.974427 2.3608e-19)
(1.1182 1.65616 -5.48186e-19)
(1.28993 1.41707 5.80167e-19)
(0.962657 1.84495 -1.44214e-19)
(1.02751 1.85022 9.21482e-19)
(0.576439 0.30787 1.22736e-20)
(0.560056 0.292029 0)
(1.34615 0.764246 0)
(0.543817 0.33441 4.69439e-20)
(0.479106 0.326798 -4.87102e-20)
(0.970495 -0.0182415 0)
(0.991116 -0.000665739 0)
(0.977514 -0.000266553 0)
(0.928917 -0.0753852 0)
(0.978241 -0.00327335 0)
(1.00231 0.0063069 0)
(-0.0268621 1.58529 -6.08206e-19)
(0.00617531 1.82098 0)
(0.0246865 1.81746 0)
(0.00816111 1.77755 0)
(-0.0107431 1.75445 0)
(-0.0308432 1.69094 0)
(0.0161057 1.74777 0)
(0.00996832 1.72279 0)
(0.0101549 1.74963 0)
(0.00141015 1.7122 0)
(0.988821 -0.00914364 0)
(0.96274 0.0221208 0)
(0.944836 0.00390115 0)
(0.943756 -0.00552821 0)
(0.938225 -0.0113601 0)
(0.0159025 2.99819 3.32932e-19)
(0.0111244 3.01394 0)
(0.00709939 3.00107 0)
(0.00212321 2.99086 3.46809e-24)
(0.00741668 2.95172 -4.94819e-19)
(-0.0256224 2.98998 0)
(-0.0382589 2.93685 0)
(0.0116177 2.96222 2.34168e-25)
(0.00822934 2.8731 0)
(0.00731039 2.95153 0)
(0.0228735 2.8249 0)
(0.100069 2.99521 0)
(-0.12263 3.03273 0)
(0.0166794 2.92454 8.25714e-19)
(-0.0784289 2.82765 0)
(-0.0153172 1.74176 0)
(-0.00342433 1.72998 2.72343e-20)
(0.00908702 1.68173 -4.65099e-20)
(0.739742 0.172616 -4.07998e-19)
(0.726236 0.139613 -4.02366e-19)
(0.711471 0.224336 -1.19003e-18)
(0.664745 0.202191 -7.59938e-19)
(0.209709 1.3587 0)
(0.345212 2.08411 -6.22617e-19)
(0.48318 2.06243 1.06575e-18)
(0.982138 0.00338 0)
(0.949941 -0.00101001 0)
(0.982697 -0.00859583 0)
(0.983957 0.0364401 0)
(0.982758 0.0443353 -3.85553e-18)
(1.0132 0.0626489 2.88293e-18)
(0.0110923 1.75271 0)
(0.0191079 1.70987 0)
(-0.00334678 1.74214 0)
(0.0153014 1.73087 0)
(-0.0137624 1.72399 0)
(0.589765 0.289828 5.51328e-20)
(0.487433 0.433528 0)
(1.01991 0.0359104 0)
(0.982413 0.0100428 0)
(0.945413 0.0109789 0)
(0.897456 0.0497287 0)
(0.901411 0.018538 0)
(1.11988 -0.0165772 0)
(0.839384 0.0495865 0)
(0.802298 0.01856 1.84372e-18)
(0.039253 2.83882 -1.17897e-19)
(0.0259247 2.95257 0)
(0.0539203 2.92673 0)
(0.0401587 2.80866 0)
(-0.0481943 2.97328 1.43561e-19)
(-0.0348664 2.85154 0)
(-0.0663751 2.96763 -5.71999e-19)
(-0.071311 2.9137 2.63864e-19)
(0.0261374 1.75385 0)
(0.00371244 1.75689 0)
(-0.0168449 1.72673 -1.33443e-21)
(-0.0209997 1.73533 0)
(0.0205073 1.69277 0)
(0.999205 0.00824216 0)
(0.984757 -0.0132175 0)
(0.957223 -0.00989687 0)
(0.999753 0.00874538 0)
(0.969372 0.0222553 0)
(0.820342 1.06449 -3.01642e-19)
(0.661694 0.948981 0)
(0.818872 1.19041 4.17331e-20)
(0.723533 1.07854 0)
(1.19111 1.39258 -1.4463e-19)
(1.32477 1.15449 1.9997e-19)
(0.598718 2.07442 0)
(0.770252 2.02085 0)
(0.779879 2.00394 0)
(0.525238 1.21721 -3.71006e-19)
(0.601112 0.31144 0)
(0.593343 0.249397 1.9595e-19)
(1.20838 1.17194 0)
(1.25925 0.921295 0)
(1.35693 0.921011 -1.3813e-19)
(1.28507 0.737543 0)
(1.3637 0.525443 6.44611e-20)
(0.992623 0.0174674 0)
(0.994734 -0.00738431 0)
(0.978232 -0.0172638 0)
(0.99392 0.00705588 0)
(0.993401 -0.0116887 0)
(0.960483 0.0134176 0)
(0.979326 0.00213291 0)
(0.962973 -0.000675677 0)
(0.98181 0.00518868 0)
(-0.0193599 1.64058 3.18448e-19)
(0.0298758 1.58781 0)
(0.00529163 1.64332 2.58438e-19)
(0.0262488 1.63797 -4.55688e-19)
(0.165059 1.98854 -4.87973e-19)
(0.0161228 1.88707 0)
(0.0754845 1.90315 0)
(-0.0200057 1.78743 0)
(-0.0334524 1.74558 0)
(-0.0132365 1.73442 -1.61224e-21)
(0.0141184 1.69259 0)
(-0.00328106 1.73167 -8.97805e-20)
(0.0248211 1.71173 -2.43245e-20)
(0.0183884 1.77922 0)
(0.0199722 1.74053 0)
(0.0226163 1.70376 0)
(0.000758218 1.73713 0)
(-0.00124878 1.71416 0)
(1.02546 0.0172531 0)
(1.01284 0.0142486 0)
(1.01259 -0.00187382 0)
(0.974798 -0.00421161 0)
(0.961677 -0.015084 0)
(0.983578 0.00510385 0)
(0.960156 0.0179919 0)
(0.935211 -0.00108312 0)
(0.0563485 3.03382 -2.28434e-21)
(0.0490491 3.03984 0)
(-0.0271051 2.98944 0)
(-0.02437 2.94477 0)
(0.630759 3.17067 0)
(0.88958 2.54562 6.13458e-19)
(-0.000865963 2.92527 0)
(-0.0534878 2.84874 0)
(-0.00217205 1.75669 0)
(-0.00604005 1.71528 0)
(-0.00724163 1.7406 0)
(0.0057947 1.78001 -1.53914e-20)
(-0.0290773 1.76489 0)
(0.0121967 1.7693 0)
(0.0207864 1.70238 1.41481e-20)
(0.0258925 1.74481 5.53886e-20)
(0.00380332 1.737 4.72551e-20)
(0.026961 1.70806 0)
(0.76542 0.134372 6.39544e-19)
(0.7406 0.0755417 -6.21904e-19)
(0.185226 1.40036 0)
(0.238149 1.32452 -2.28272e-19)
(0.146262 1.47432 -6.61558e-19)
(0.133881 1.43864 6.59803e-19)
(0.980142 -0.0161994 0)
(0.982381 -0.0164662 0)
(0.983383 -0.00726975 0)
(0.955383 0.0145003 0)
(-0.00422285 1.74592 0)
(0.0170063 1.75612 0)
(-0.0108132 1.73256 0)
(0.517219 0.328363 3.60863e-19)
(0.547393 0.333768 -2.80051e-19)
(0.466742 0.342486 0)
(1.19712 0.0928753 4.7312e-20)
(1.22203 0.0400738 0)
(1.13002 0.0415992 0)
(1.06099 0.00731128 0)
(0.784428 0.102868 0)
(0.82384 0.0529457 -2.93336e-18)
(0.760326 0.0392055 1.10345e-18)
(0.0548951 2.95065 7.71398e-23)
(0.03172 2.83984 3.65062e-20)
(0.0520515 3.03994 -4.66328e-21)
(0.038085 3.0305 2.1846e-19)
(-0.0373104 3.00376 8.89632e-21)
(-0.0467495 2.95648 -3.2234e-23)
(-0.0257219 3.01541 -1.63191e-19)
(-0.00411053 3.00948 1.19717e-19)
(0.0217262 3.02142 -2.29123e-19)
(1.01424 0.011391 0)
(0.996662 0.0235725 0)
(0.970785 0.036158 0)
(0.992897 -0.0147626 0)
(0.97985 -0.00285214 0)
(0.957083 -0.00563995 0)
(0.979381 -0.00517287 0)
(0.991514 0.00966366 0)
(0.964473 0.0154043 0)
(0.761147 1.11812 -5.62014e-20)
(0.581707 1.16297 0)
(0.677432 1.18267 1.09014e-19)
(0.684903 1.29102 8.07085e-19)
(0.743477 1.24551 -4.77943e-19)
(0.718797 1.13264 9.0385e-19)
(0.481867 1.30509 1.75629e-18)
(0.515432 1.23616 3.4157e-19)
(0.681026 0.23727 -8.01844e-19)
(0.649079 0.277561 1.97463e-19)
(0.648248 0.228036 3.81608e-19)
(1.27663 0.511553 -7.46949e-20)
(1.31991 0.365715 -1.3844e-19)
(0.0129313 1.69145 2.06549e-19)
(0.0162006 1.674 0)
(1.07361 0.026739 0)
(1.05389 0.00626364 0)
(1.02479 -0.00980912 0)
(0.0587627 3.05497 0)
(0.0140073 2.99239 1.77899e-19)
(-0.00809663 3.00123 0)
(-0.00366467 2.9225 -1.70514e-19)
(0.0541754 3.08684 3.72402e-20)
(0.0458943 3.06848 0)
(0.659878 1.34796 -9.27369e-20)
(0.884114 1.83017 1.76019e-19)
(0.59127 1.43677 -7.11431e-19)
(0.0260706 2.95892 9.65738e-20)
(-0.00360669 2.95634 0)
(-0.0119597 2.85136 0)
(-5.28387e-05 1.7625 -5.89371e-21)
(-0.0139717 1.72324 -3.43897e-21)
(-0.0434223 1.71322 1.18014e-20)
(0.23393 1.39715 7.07482e-19)
(0.312684 1.32845 -4.80031e-19)
(0.0247568 1.61868 4.64099e-19)
(0.0753663 1.5396 -5.69447e-19)
(0.0820652 1.5265 7.01541e-20)
(0.00558122 3.10991 -9.4343e-20)
(0.0186219 3.11377 1.02411e-19)
(-0.0328553 2.94787 9.37504e-20)
(0.011413 2.94634 -3.37725e-20)
(-0.00173264 2.84206 -9.54965e-20)
(0.0266953 3.10025 -2.1131e-19)
(0.0280546 3.11269 2.02633e-19)
(0.541049 1.31843 0)
(0.635683 1.31072 -1.79299e-18)
(0.603501 1.21088 8.01619e-19)
(0.446749 1.33951 9.73089e-19)
(0.448332 1.28363 -1.5156e-18)
(1.26125 0.167182 1.48864e-19)
(1.28504 0.352742 0)
(1.30716 0.172036 -9.26337e-20)
(0.00474589 1.70477 -2.11545e-21)
(-0.0133709 1.70438 0)
(-0.0129494 1.66744 0)
(0.310202 1.3869 -2.47616e-19)
(0.362794 1.35316 -6.09897e-19)
(0.384668 1.29791 1.11615e-18)
(0.999219 -0.0381672 0)
(1.03182 -0.0684353 7.14827e-19)
(0.00958659 1.76265 0)
(-0.0106746 1.76938 0)
(1.03896 0.00721585 2.32397e-20)
(0.956732 0.00867244 1.49333e-18)
(0.0031842 1.79046 1.95824e-20)
(0.0376053 1.80238 0)
(-0.00315212 3.0917 -3.32353e-19)
(0.0876866 3.05926 0)
(1.11384 0.666484 -1.61147e-19)
(1.01747 -0.0126811 -1.29622e-20)
(1.00735 0.0277969 0)
(1.01992 -0.00182499 -5.89957e-21)
(0.0867592 1.86438 0)
(0.0537966 1.70416 0)
(-0.0277244 1.77607 0)
(0.0304853 1.75077 1.22869e-19)
(-0.011885 1.77323 6.34163e-20)
(0.986743 -0.00719004 5.60817e-21)
(1.05438 0.0458501 0)
(1.06843 0.0329502 0)
(0.00871171 1.74331 0)
(0.015408 1.77351 0)
(-0.0266865 1.77643 0)
(0.239325 1.95396 -1.73125e-19)
(0.964906 -0.0413512 0)
(0.982519 -0.0433416 0)
(1.00449 0.00544634 9.07725e-19)
(1.0361 -0.00443815 -1.07933e-18)
(1.05655 -0.0288809 0)
(-0.00755901 1.73641 0)
(0.0201869 1.7456 0)
(0.00260251 1.7328 0)
(-0.0202758 1.78111 0)
(-0.0099504 1.77141 0)
(-0.00722151 1.76617 0)
(1.02172 0.00463511 0)
(1.0189 -0.0186356 -8.64734e-21)
(0.816334 1.65824 2.69763e-19)
(1.00302 -0.026895 -9.01236e-19)
(1.05373 0.0269625 1.10107e-18)
(1.04662 0.010619 0)
(0.999912 -0.00391686 8.67408e-19)
(0.989665 0.0254942 -1.09597e-18)
(1.00233 0.0195642 0)
(0.0191859 1.78237 0)
(0.0123997 1.76129 4.69532e-20)
(0.00494891 1.76852 -3.39925e-20)
(1.17047 0.293329 9.8997e-19)
(1.10245 0.070787 0)
(0.0293853 3.14634 1.2385e-19)
(0.0359785 2.92396 -4.02297e-21)
(-0.0174784 3.17883 -6.32676e-19)
(0.00893542 3.12128 2.24274e-19)
(0.00462922 3.04361 0)
(-0.0066288 3.10062 -8.00818e-20)
(-0.0112292 3.13021 -1.1045e-19)
(0.0164075 3.10976 1.26336e-19)
(-0.00707368 3.10198 0)
(0.672115 0.304386 0)
(0.559699 0.381472 0)
(1.0781 0.739638 4.30608e-19)
(1.13888 0.897553 1.9726e-19)
(1.08736 0.613782 0)
(1.14728 0.579929 0)
(1.02763 0.00397441 -1.68655e-18)
(1.00517 -0.0101569 6.54538e-21)
(1.02081 0.00793897 0)
(1.01139 -0.0307447 0)
(0.975004 0.0332522 0)
(1.01701 -0.0129185 0)
(1.00718 -0.00583012 0)
(1.02374 -0.044697 0)
(1.01778 -0.0383869 0)
(1.00174 0.0106497 0)
(0.0704386 1.86648 0)
(0.0219937 1.85286 0)
(0.10396 1.87131 0)
(0.114195 1.91244 0)
(0.0452506 1.64077 0)
(0.0535402 1.67186 -3.15114e-19)
(0.0782209 1.71731 0)
(0.0793028 1.71285 1.84157e-19)
(0.0167177 1.74289 -1.73551e-19)
(-0.0264634 1.78319 0)
(-0.00496283 1.77323 0)
(-0.016659 1.78498 0)
(-0.0254022 1.79761 0)
(-0.00124946 1.73038 -4.5877e-20)
(-0.00166742 1.74236 9.84077e-20)
(0.0410457 1.77863 7.27496e-20)
(0.0384316 1.77474 0)
(-0.00998928 1.77375 -1.67004e-19)
(0.00910592 1.76191 -1.18811e-19)
(-0.00773695 1.74613 3.02471e-20)
(0.0039782 1.70364 -1.23075e-19)
(0.0499671 1.76074 -8.77983e-20)
(0.990466 -0.0134536 1.48355e-18)
(1.00503 -0.0345518 -1.78311e-20)
(0.992857 0.0127865 -1.5505e-18)
(0.935681 -0.00496061 2.02987e-18)
(1.03786 -0.00851426 0)
(1.05249 -0.0094794 0)
(1.03365 0.0127377 0)
(1.0608 0.041065 0)
(1.04873 0.0138821 0)
(1.07149 0.0501986 0)
(1.0746 0.042031 0)
(1.07442 0.0357697 0)
(-0.0634779 1.75139 -2.93708e-21)
(0.0529208 1.72695 0)
(-0.0226965 1.73698 0)
(-0.0265926 1.76761 3.50101e-20)
(-0.0304204 1.78597 -1.01673e-21)
(-0.0021824 1.7786 -2.92178e-20)
(-0.00937592 1.76771 3.00628e-20)
(0.00375021 1.76958 0)
(-0.0166688 1.7672 0)
(0.0032935 1.7647 0)
(-0.00671822 1.77709 0)
(-0.0020761 1.78077 0)
(0.440268 1.93875 2.38824e-19)
(0.423769 1.99004 1.37935e-19)
(0.238362 1.4868 -1.75763e-19)
(0.197904 1.54074 4.44463e-19)
(0.320568 1.6774 1.01309e-19)
(1.01928 -0.00173174 0)
(0.996242 -0.000506253 0)
(1.02057 0.0329531 0)
(1.00249 -0.0267762 0)
(1.0023 -0.00948476 0)
(0.953757 0.0213577 0)
(0.974221 0.0826862 0)
(1.02187 0.0819612 0)
(1.00156 -0.0212345 1.59656e-18)
(1.01552 -0.00686755 -2.01141e-18)
(1.01783 -0.0111699 -1.53957e-18)
(0.997751 0.00255362 2.00854e-18)
(0.812155 1.70709 0)
(0.739309 1.75324 1.90747e-19)
(0.905965 1.52096 3.74517e-20)
(0.939725 1.52367 -4.96736e-20)
(0.962828 1.60452 9.27769e-19)
(0.858457 0.115156 6.77928e-19)
(1.11835 0.103248 0)
(1.14417 0.173448 -8.24222e-19)
(1.13098 0.114493 -3.46711e-20)
(0.954828 0.154064 0)
(-0.0814769 3.18029 -4.99445e-19)
(0.0506821 3.09338 4.62181e-19)
(0.0761088 2.69755 -7.59037e-20)
(0.469713 0.697882 3.01677e-19)
(0.0192549 3.06198 -4.21591e-19)
(-0.0121359 3.08422 0)
(0.0556759 3.02555 5.2297e-19)
(-0.115046 3.07252 1.18229e-18)
(-0.113958 3.08821 0)
(-0.00703784 3.11028 -1.58134e-21)
(0.00659523 3.11443 -3.10176e-20)
(-0.00732068 3.10384 4.05773e-20)
(0.00185863 3.09907 0)
(0.00920913 3.11623 0)
(0.928813 1.84274 0)
(0.107432 0.890678 -5.25493e-19)
(1.09468 1.17139 1.4037e-19)
(0.931413 1.31985 0)
(0.764698 1.13731 -2.36528e-19)
(1.00607 1.07531 2.65173e-20)
(0.518175 0.163442 1.59774e-19)
(0.662286 0.311119 -1.33151e-20)
(0.656664 0.320805 4.11282e-19)
(0.556817 0.378591 1.84935e-20)
(0.532694 0.365889 -6.89807e-19)
(0.663327 0.343855 0)
(0.645254 0.404091 5.88159e-19)
(0.642243 0.380858 0)
(0.560696 0.387859 0)
(0.581573 0.349509 0)
(0.616088 0.709472 5.31547e-19)
(1.1815 0.296418 -3.43596e-20)
(1.17244 0.364163 0)
(1.19511 0.329234 0)
(0.775525 0.226606 6.55813e-19)
(0.656339 0.577807 -4.08386e-19)
(0.622382 0.501155 -7.63234e-19)
(0.835383 0.41135 -8.77714e-19)
(1.00141 0.0285965 1.08611e-18)
(1.01036 0.041321 -1.15419e-18)
(1.0073 0.0507851 0)
(1.01924 -0.0107779 0)
(1.01863 -0.0412017 -1.0525e-18)
(1.01744 -0.00740591 1.04224e-18)
(0.990374 0.00464104 0)
(0.987655 -0.00830952 0)
(1.01741 -0.00994586 0)
(1.01085 -0.00795062 0)
(1.00197 -0.0263416 0)
(0.992712 -0.0197845 0)
(0.0161628 1.84079 0)
(0.0358286 1.82195 0)
(0.0420415 1.80941 3.67679e-20)
(0.227724 1.93633 8.10753e-20)
(0.126051 1.92369 1.41954e-19)
(0.119003 1.92701 -6.17935e-20)
(0.0655555 1.8061 0)
(0.19345 1.75254 -1.46616e-19)
(0.163141 1.79702 0)
(0.290726 1.70723 -1.4693e-19)
(0.266778 1.64461 5.08892e-19)
(0.185225 1.75683 1.29585e-19)
(0.21648 1.89855 1.98509e-20)
(0.160036 1.7805 1.5995e-20)
(0.336167 1.79112 -1.27987e-19)
(0.21588 1.72759 1.71693e-19)
(0.244252 1.71484 1.13706e-19)
(0.00911512 1.72281 -6.17427e-20)
(-0.000376702 1.72566 0)
(0.0449914 1.70667 1.73838e-19)
(-0.00550852 1.71547 0)
(0.0632086 1.7333 -2.12324e-19)
(0.030588 1.73476 0)
(0.0388389 1.76635 -5.68662e-20)
(0.0280504 1.77689 0)
(0.0527333 1.76092 0)
(0.0516787 1.76981 6.47257e-20)
(0.0192441 1.72989 -1.26105e-20)
(0.0342738 1.75884 2.03215e-19)
(0.0325569 1.73955 1.71719e-21)
(0.0504283 1.69581 4.05122e-20)
(0.00596915 1.71952 -2.35405e-20)
(0.0281737 1.761 0)
(0.000516401 1.76517 0)
(0.00172026 1.75 1.36106e-19)
(-0.0155239 1.74986 1.36534e-19)
(-0.0191983 1.7753 -1.68957e-19)
(0.0252868 1.7624 0)
(-0.0203347 1.74703 -8.73616e-20)
(-0.0192265 1.7599 2.13273e-20)
(0.016222 1.78591 -7.36567e-21)
(0.0557123 1.73989 -4.88876e-20)
(0.00544535 1.71775 -3.50324e-20)
(-0.0226406 1.74875 1.3314e-19)
(1.00088 0.0255368 -1.10137e-18)
(0.996085 0.0091544 1.04062e-18)
(0.996231 0.0426796 0)
(0.97322 -0.00898978 1.41323e-18)
(0.923227 0.0793752 -1.60867e-18)
(0.927744 0.063674 1.78045e-18)
(0.965869 0.00123932 -1.79419e-19)
(1.04148 -0.0260107 0)
(1.03727 -0.0254834 9.89916e-19)
(1.03177 -0.034319 -1.00525e-18)
(0.975597 0.0263812 -5.77078e-20)
(1.00465 0.0310689 4.78624e-19)
(0.980029 0.0648393 0)
(0.98823 0.0543693 -1.75928e-19)
(1.00011 0.0515772 0)
(0.989025 0.0490703 0)
(1.01275 0.0552224 0)
(0.996202 0.0262787 0)
(1.02971 0.0590326 3.51121e-19)
(1.01056 0.012971 -8.14841e-19)
(0.950455 0.000648387 -3.64484e-19)
(0.991569 0.0212456 -4.1173e-19)
(1.00599 0.0648468 7.93081e-19)
(1.03642 0.0668808 0)
(1.00271 0.0456686 0)
(-0.00176619 1.77176 3.36867e-21)
(0.0404066 1.72132 -2.09968e-21)
(-0.0162322 1.76938 0)
(0.01566 1.78199 -3.4984e-21)
(0.0127124 1.75743 4.7587e-21)
(0.0277492 1.75332 -1.11346e-20)
(0.0026672 1.77695 1.07762e-19)
(0.0430617 1.76696 -4.80447e-21)
(0.0485343 1.73318 2.94204e-20)
(-0.0525752 1.78446 -4.57101e-20)
(-0.0292296 1.78231 -3.95475e-21)
(0.0421129 1.74715 -5.13395e-21)
(-0.0185821 1.71819 2.3306e-20)
(0.442836 1.81138 -8.01531e-20)
(0.406409 1.74624 1.66015e-19)
(0.728177 1.80619 -1.80524e-19)
(0.598921 1.90066 -1.38065e-19)
(0.632929 1.87702 0)
(0.283711 1.48681 1.82935e-19)
(0.350985 1.4731 2.42133e-19)
(0.211462 1.52423 4.37248e-20)
(0.277431 1.53953 -6.06114e-19)
(0.268719 1.5047 5.63608e-19)
(0.25878 1.50963 0)
(0.210781 1.50611 -3.75267e-19)
(0.104307 1.60879 8.12939e-19)
(0.189813 1.60912 -1.51294e-20)
(0.104956 1.61301 -1.0638e-18)
(0.551382 1.46058 1.08533e-18)
(0.47894 1.4609 0)
(1.00968 0.0180408 3.46018e-20)
(1.02967 0.02825 -2.92021e-20)
(0.985165 -0.0622135 -5.39038e-19)
(1.00268 -0.00438086 5.4048e-19)
(0.993986 0.0446037 0)
(0.731148 1.64182 0)
(0.651148 1.54216 0)
(0.822202 1.33992 0)
(0.59898 1.44791 0)
(0.960573 1.57332 4.20957e-20)
(0.934599 1.53692 0)
(0.623482 1.56514 7.55331e-21)
(0.48018 1.5316 0)
(0.550451 1.5134 -7.67845e-19)
(0.562694 1.52028 0)
(0.854005 0.129211 0)
(0.808597 0.134385 1.88605e-19)
(0.889677 0.0866027 1.09235e-18)
(0.853859 0.110554 -3.95789e-19)
(0.846281 0.10492 -1.33838e-18)
(0.995047 0.184375 -1.16115e-18)
(0.89404 0.283154 -3.05832e-20)
(0.833721 0.26812 9.87805e-19)
(0.925407 0.193876 9.29954e-19)
(0.894138 0.132339 -1.49185e-18)
(0.868027 0.221945 1.84762e-19)
(0.790721 0.271401 -4.29779e-19)
(0.8573 0.232417 0)
(0.951405 0.143074 -7.23847e-19)
(0.954844 0.170511 0)
(0.947146 0.22186 0)
(1.03859 0.160013 3.94077e-19)
(0.962837 0.199651 -4.41773e-21)
(0.958566 0.172755 -6.318e-19)
(0.994208 0.174019 0)
(1.00379 0.0567276 7.72691e-19)
(0.998464 0.0181352 9.76758e-19)
(1.01275 0.054513 -7.4103e-19)
(1.00436 0.0647408 -6.66693e-19)
(0.958968 0.0411181 -1.00388e-18)
(0.948251 0.139643 0)
(0.963937 0.017174 0)
(0.918499 0.0823444 -6.32931e-19)
(0.905424 0.0441399 2.38646e-19)
(1.01244 0.0847173 8.85749e-19)
(1.01145 0.107672 -1.09897e-18)
(0.972351 0.120585 9.63273e-19)
(0.947717 0.140137 0)
(0.976715 0.0843012 0)
(0.977294 0.0681674 -4.43903e-19)
(0.991957 0.0772173 -7.33638e-19)
(0.597897 1.57887 2.93193e-19)
(0.578024 1.63781 -3.69971e-19)
(0.792838 1.75209 -4.60399e-19)
(0.805847 2.08515 6.46144e-20)
(0.984698 1.71352 -8.18492e-19)
(0.971435 1.83227 6.43687e-20)
(1.03287 1.68708 -7.65135e-21)
(0.85891 1.96538 -3.1704e-19)
(0.851432 1.8466 6.08308e-19)
(0.791814 2.30029 -3.06123e-20)
(0.964646 2.02707 3.73316e-20)
(0.947719 2.09103 0)
(0.207578 1.10992 -7.58463e-20)
(-0.355682 2.02139 -4.31061e-19)
(0.514719 0.240641 7.10074e-20)
(0.164335 0.491503 -2.95496e-19)
(0.508745 0.377709 3.7999e-19)
(0.476989 0.36398 -6.3378e-19)
(0.435611 0.301238 4.24643e-19)
(0.519664 0.337467 -6.2565e-20)
(0.498672 0.329596 2.95556e-19)
(0.772469 0.265047 1.15317e-18)
(0.682192 0.318761 0)
(0.709224 0.257068 9.29432e-21)
(0.550373 0.472329 3.2259e-19)
(0.522975 0.466724 -1.16461e-18)
(0.474966 0.380156 -4.84328e-20)
(0.502704 0.402311 0)
(0.38994 0.951124 5.31941e-19)
(0.691834 0.934646 6.21852e-19)
(0.589772 0.986934 -7.20657e-19)
(0.688598 0.940904 -2.53386e-19)
(0.866706 0.923198 -7.93308e-20)
(0.855911 0.968951 8.01297e-20)
(0.749504 0.64562 -8.94229e-19)
(0.772135 0.806107 2.38371e-19)
(0.904887 0.821828 0)
(0.861823 0.769531 -3.19687e-19)
(0.88897 0.325284 2.79534e-19)
(1.04286 0.31912 4.49924e-19)
(1.04789 0.2466 4.68577e-19)
(0.882687 0.417962 -5.72313e-19)
(1.02924 0.378025 0)
(0.998026 0.390508 0)
(0.808915 0.374726 1.41154e-20)
(0.7575 0.285807 0)
(0.748932 0.2937 4.49805e-19)
(0.885177 0.267083 -2.75806e-20)
(0.851843 0.429736 2.47327e-18)
(0.771085 0.50139 6.62919e-19)
(0.801303 0.466241 -6.34689e-19)
(0.732879 0.390043 -6.66021e-19)
(0.70958 0.436568 3.79975e-19)
(0.660587 0.420285 -3.6686e-19)
(0.978751 0.0548431 8.67053e-19)
(0.985666 -0.0422241 0)
(1.01868 -0.00881533 5.78473e-19)
(0.959457 0.0373003 6.33828e-21)
(1.01431 -0.0175284 6.24877e-19)
(1.00964 0.0455234 -1.32237e-18)
(1.01458 -0.00451782 0)
(0.983266 -0.0340934 -2.74437e-19)
(1.01065 0.0445247 7.10208e-19)
(0.975392 0.0152217 -3.74247e-19)
(0.969434 -0.0408681 2.64849e-19)
(0.0175054 1.81481 0)
(0.0646772 1.7627 0)
(0.0400584 1.80354 0)
(0.0302999 1.81684 0)
(0.0777602 1.77361 1.50968e-19)
(0.0803154 1.77079 -8.17265e-20)
(0.0840066 1.7535 -4.02594e-20)
(0.0839115 1.75505 -5.0537e-20)
(0.0355722 1.7347 -1.58523e-19)
(0.0461241 1.76325 1.16946e-19)
(0.0469801 1.78829 -3.46512e-20)
(0.0416777 1.78922 6.99186e-20)
(0.0139525 1.75873 -9.47917e-21)
(0.0161029 1.77572 1.52006e-20)
(0.0952941 1.71153 -1.78899e-19)
(0.11769 1.72649 0)
(0.122185 1.7118 1.30792e-19)
(0.104603 1.7867 8.46368e-20)
(0.142218 1.67233 -1.02815e-19)
(0.144421 1.62247 0)
(0.159112 1.60083 -6.13164e-19)
(0.214846 1.61726 4.24091e-19)
(0.123436 1.66995 -3.51994e-19)
(0.124306 1.67318 1.53425e-19)
(0.0622194 1.60065 0)
(0.0228191 1.72723 -1.45061e-19)
(0.0215004 1.7416 -2.06962e-19)
(-0.0053196 1.70307 0)
(0.0328739 1.76556 -2.25688e-21)
(0.011848 1.73865 7.10731e-20)
(-0.0100584 1.789 2.55956e-21)
(0.0121486 1.77967 -4.69284e-20)
(0.00534348 1.77048 -1.42785e-20)
(-0.0181439 1.74387 4.97702e-20)
(0.0354526 1.77813 0)
(-0.00714719 1.799 0)
(0.0107199 1.76692 3.15851e-20)
(-0.00244086 1.77006 -1.03161e-20)
(-0.0185144 1.79837 0)
(-0.0314993 1.77598 1.95998e-20)
(-0.0215878 1.76503 -4.24842e-20)
(0.959653 0.0707226 0)
(1.02947 0.0944416 -9.24018e-20)
(1.00932 0.00301118 -6.13063e-19)
(0.947561 0.00337946 0)
(1.00025 -9.00149e-06 0)
(1.02736 -0.0553232 -3.85959e-20)
(0.959751 -0.0314843 1.07442e-18)
(0.992602 -0.00638649 1.25958e-18)
(0.984421 0.0135352 0)
(1.00059 0.000519398 0)
(0.989272 -0.0121924 6.37853e-19)
(0.998634 0.0230455 0)
(0.992139 0.0270629 0)
(-0.0363828 1.78747 0)
(-0.0128704 1.69915 1.27101e-20)
(-0.0353266 1.75933 1.6015e-20)
(-0.0153762 1.7568 0)
(0.0291897 1.67313 2.46415e-20)
(0.04843 1.74867 3.87342e-21)
(0.012739 1.7882 0)
(0.430644 1.66724 0)
(0.348283 1.68777 -3.58474e-19)
(0.381476 1.65868 0)
(0.438697 1.76201 1.12505e-19)
(0.484674 1.78968 0)
(0.464095 1.79115 -1.04474e-19)
(0.618442 1.50708 -2.27848e-20)
(0.581991 1.4654 -1.33481e-18)
(0.630731 1.44837 1.59248e-18)
(0.525171 1.44833 2.7893e-19)
(0.532536 1.50069 0)
(0.541927 1.49874 0)
(0.556431 1.46445 0)
(0.541317 1.44864 -1.02406e-18)
(0.372556 1.52577 -5.63929e-19)
(0.427685 1.49279 -1.40983e-19)
(0.461293 1.50249 1.15974e-19)
(0.379297 1.48498 0)
(0.448988 1.4811 0)
(0.409161 1.48508 -2.97281e-19)
(0.41896 1.48315 0)
(0.475173 1.49638 0)
(0.328302 1.47769 -7.518e-19)
(0.369434 1.26311 -5.40502e-20)
(0.585028 1.57736 0)
(0.437908 1.62571 1.20019e-18)
(0.650439 1.14104 -2.33331e-19)
(0.750006 1.19487 0)
(0.708962 1.16391 3.70263e-19)
(0.428104 1.40609 0)
(0.46156 1.24564 0)
(0.824783 1.59971 -4.53274e-19)
(0.761544 1.65882 -3.55666e-19)
(0.660659 1.60766 6.35696e-19)
(0.670664 1.59282 -1.74745e-19)
(0.794714 1.53566 0)
(0.72143 1.51543 2.6048e-19)
(0.894285 1.51648 -3.8857e-19)
(0.832886 1.50307 -2.24705e-20)
(0.589151 1.56453 0)
(0.58235 1.60185 -2.51655e-19)
(0.596269 1.58708 0)
(0.824508 0.203489 0)
(0.817724 0.157484 0)
(0.762081 0.198742 0)
(0.81426 0.224831 -7.19145e-19)
(0.770896 0.226018 4.03649e-19)
(0.92445 0.0183711 -4.90331e-19)
(0.922119 0.0748124 0)
(0.88107 0.0689915 2.13128e-19)
(0.856237 0.0609997 8.62791e-19)
(0.873849 0.0246616 -5.3751e-19)
(0.667172 2.53605 -3.41454e-19)
(0.703185 2.44157 0)
(0.694635 2.68336 -1.10609e-18)
(0.153627 2.91124 8.59889e-19)
(0.199435 2.55099 1.9082e-20)
(-0.13015 1.50194 6.6612e-19)
(0.0483022 1.63968 0)
(-0.241761 0.60584 -2.47325e-20)
(-0.0571703 0.724057 -8.46972e-19)
(0.171829 0.129588 -5.06119e-20)
(0.424875 0.409377 1.56441e-23)
(0.557248 0.458939 3.54556e-19)
(0.567625 0.464869 0)
(0.343784 0.564233 0)
(0.364397 0.485338 0)
(0.854788 0.663664 2.23937e-19)
(0.775129 0.526471 -6.42641e-19)
(0.815474 0.608821 5.5935e-19)
(0.844338 0.494724 -5.06958e-19)
(1.06134 0.497263 0)
(1.00588 0.608873 -1.58123e-19)
(0.746544 0.349469 -8.97343e-19)
(0.731418 0.337352 1.51709e-18)
(0.658954 0.422097 7.05336e-19)
(0.70458 0.351779 -6.87895e-19)
(0.755623 0.303231 -5.56191e-19)
(0.736552 0.323095 6.81381e-19)
(1.01828 -0.00565901 -6.52357e-19)
(1.02601 0.00538752 1.3558e-18)
(1.00967 0.0621377 8.16338e-19)
(1.02109 0.0226152 -9.8451e-19)
(0.925602 0.00802814 0)
(0.912703 -0.00556447 -1.69864e-18)
(0.0594708 1.73786 4.1255e-20)
(0.0308528 1.74241 0)
(0.049815 1.76272 2.70234e-19)
(0.0476418 1.7676 -2.43932e-19)
(0.0366849 1.69747 7.25508e-20)
(0.0442642 1.71648 0)
(0.0742081 1.76503 0)
(0.0145272 1.79481 -3.79316e-21)
(-0.00925803 1.6691 3.50352e-21)
(0.0128698 1.66173 8.56767e-21)
(0.0280357 1.7607 -2.97291e-20)
(0.0597767 1.74053 -4.83537e-20)
(0.520524 1.60491 -7.95747e-19)
(0.502426 1.61673 -9.01929e-19)
(0.507913 1.68767 -2.34098e-19)
(0.511365 1.64908 3.52079e-20)
(0.712862 1.63966 0)
(0.552178 1.77233 -5.74114e-21)
(0.588804 1.73961 5.47227e-21)
(0.55127 1.75024 2.33849e-19)
(0.598779 1.67195 0)
(0.626052 1.59646 0)
(0.395798 1.51146 8.25254e-19)
(0.302834 1.4868 1.35013e-18)
(0.365922 1.47671 -9.13527e-19)
(0.253334 1.50992 -1.57565e-19)
(0.334553 1.51397 2.99706e-19)
(0.237184 1.49768 -7.3377e-19)
(0.686991 1.47408 -8.48132e-19)
(0.78517 1.49271 0)
(0.746463 1.4721 -8.62046e-19)
(0.670468 1.4909 0)
(0.661907 1.48322 0)
(-0.108 2.27048 -3.4145e-19)
(0.418054 2.15899 -1.91501e-19)
(0.332381 2.32005 2.3673e-19)
(-0.405869 1.62474 0)
(-0.487221 1.38306 -2.31362e-19)
(-0.338261 1.48215 -1.21695e-18)
(-0.227536 2.37817 0)
(-0.315107 2.5762 -1.17675e-20)
(-0.288243 2.75536 0)
(0.381024 0.713436 -1.11908e-18)
(0.591394 0.807065 1.42253e-18)
(0.63226 0.687416 7.85904e-19)
(0.373994 0.604035 1.24091e-19)
(0.525797 0.545694 -4.75892e-19)
(0.501124 2.08493 1.4284e-19)
(0.580252 1.89892 -5.26839e-19)
(0.223027 2.05106 1.20024e-18)
(0.388215 1.90095 -8.48148e-19)
(0.550408 1.70288 -8.3515e-19)
(0.633119 1.78833 -1.50431e-19)
(0.646519 1.76162 6.68737e-19)
(0.528829 1.88557 5.11064e-20)
(0.50109 1.76746 1.00265e-18)
)
;

boundaryField
{
    wall-4
    {
        type            noSlip;
    }
    velocity-inlet-5
    {
        type            fixedValue;
        value           uniform (1 0 0);
    }
    velocity-inlet-6
    {
        type            fixedValue;
        value           uniform (0 3 0);
    }
    pressure-outlet-7
    {
        type            zeroGradient;
    }
    wall-8
    {
        type            noSlip;
    }
    frontAndBackPlanes
    {
        type            empty;
    }
}


// ************************************************************************* //
