/*--------------------------------*- C++ -*----------------------------------*\
| =========                 |                                                 |
| \\      /  F ield         | OpenFOAM: The Open Source CFD Toolbox           |
|  \\    /   O peration     | Version:  2412                                  |
|   \\  /    A nd           | Website:  www.openfoam.com                      |
|    \\/     M anipulation  |                                                 |
\*---------------------------------------------------------------------------*/
FoamFile
{
    version     2.0;
    format      ascii;
    arch        "LSB;label=32;scalar=64";
    class       volVectorField;
    location    "5";
    object      U;
}
// * * * * * * * * * * * * * * * * * * * * * * * * * * * * * * * * * * * * * //

dimensions      [0 1 -1 0 0 0 0];

internalField   nonuniform List<vector> 
39
(
(0.694173 0.135431 5.38558e-19)
(0.725427 0.206474 -5.60361e-19)
(0.669329 0.182337 -3.74542e-19)
(0.627389 0.23143 1.05685e-19)
(0.691864 0.250151 4.02629e-19)
(0.674433 0.271517 9.5757e-20)
(0.653536 0.211133 1.99258e-19)
(0.715381 0.342054 -2.39657e-20)
(0.719119 0.31336 2.00301e-19)
(0.703785 0.402165 0)
(0.79381 0.227364 3.17304e-19)
(0.793562 0.475378 -3.51511e-19)
(0.720334 0.450829 2.5173e-19)
(0.867143 0.410704 -2.6321e-19)
(0.793966 0.261533 -1.78809e-19)
(0.758616 0.291431 0)
(0.763322 0.271226 1.13448e-20)
(0.923878 0.34988 1.49552e-19)
(0.97289 0.398385 0)
(0.849923 0.337178 1.3414e-20)
(0.801442 0.301386 0)
(0.855406 0.410092 7.20403e-19)
(0.83035 0.455007 1.79189e-19)
(0.816078 0.435871 -2.30168e-19)
(0.75128 0.391964 2.48869e-19)
(0.7336 0.395867 1.61773e-19)
(0.716736 0.402848 -1.59032e-19)
(0.979376 0.550503 -1.20341e-19)
(0.824708 0.464418 -1.74083e-19)
(0.819975 0.51123 9.72914e-20)
(0.855401 0.488243 -1.31755e-19)
(1.00082 0.448163 0)
(1.04178 0.51374 -1.03561e-20)
(0.769066 0.366816 -3.77238e-19)
(0.785047 0.35973 -4.31155e-19)
(0.750974 0.367265 2.93229e-19)
(0.754455 0.341465 -3.24607e-19)
(0.783959 0.31027 -2.50115e-19)
(0.757214 0.315823 3.08281e-19)
)
;

boundaryField
{
    wall-4
    {
        type            noSlip;
    }
    velocity-inlet-5
    {
        type            fixedValue;
        value           nonuniform List<vector> 0();
    }
    velocity-inlet-6
    {
        type            fixedValue;
        value           nonuniform List<vector> 0();
    }
    pressure-outlet-7
    {
        type            zeroGradient;
    }
    wall-8
    {
        type            noSlip;
    }
    frontAndBackPlanes
    {
        type            empty;
    }
    procBoundary8to6
    {
        type            processor;
        value           nonuniform List<vector> 5((1.12443 0.525276 0) (0.746631 0.574015 9.47227e-20) (0.809159 0.542862 -1.82401e-19) (0.914532 0.654979 -2.63202e-20) (1.0111 0.379922 0));
    }
    procBoundary8to7
    {
        type            processor;
        value           nonuniform List<vector> 5((0.649922 0.311502 0) (0.704515 0.355198 0) (0.703744 0.365291 0) (0.703366 0.418577 3.15734e-19) (0.688179 0.479435 1.58272e-19));
    }
    procBoundary8to9
    {
        type            processor;
        value           uniform (0.946613 0.286186 6.5977e-20);
    }
    procBoundary8to10
    {
        type            processor;
        value           nonuniform List<vector> 4((0.724428 0.168951 1.86028e-19) (0.811141 0.212792 -1.86799e-19) (0.842428 0.269478 -4.34923e-19) (0.82213 0.285824 1.88032e-19));
    }
}


// ************************************************************************* //
