/*--------------------------------*- C++ -*----------------------------------*\
| =========                 |                                                 |
| \\      /  F ield         | OpenFOAM: The Open Source CFD Toolbox           |
|  \\    /   O peration     | Version:  2412                                  |
|   \\  /    A nd           | Website:  www.openfoam.com                      |
|    \\/     M anipulation  |                                                 |
\*---------------------------------------------------------------------------*/
FoamFile
{
    version     2.0;
    format      ascii;
    arch        "LSB;label=32;scalar=64";
    class       volVectorField;
    location    "1";
    object      U;
}
// * * * * * * * * * * * * * * * * * * * * * * * * * * * * * * * * * * * * * //

dimensions      [0 1 -1 0 0 0 0];

internalField   nonuniform List<vector> 
38
(
(-0.00257846 1.60397 -1.05591e-18)
(0.201263 1.39469 0)
(0.355851 2.11292 -2.9776e-19)
(0.465876 2.10044 5.29798e-19)
(-0.00822861 1.62517 5.47047e-19)
(0.00480144 1.56322 0)
(0.21239 1.41639 0)
(0.233847 1.34674 -3.2999e-19)
(0.144341 1.49799 -1.00946e-18)
(0.102167 1.47823 1.00962e-18)
(0.0207205 1.60391 7.72971e-19)
(0.0799938 1.54806 -8.64918e-19)
(0.0594367 1.53296 6.87775e-20)
(0.133237 1.73593 0)
(0.227237 1.96639 6.99935e-20)
(0.109158 1.65342 0)
(0.0300357 1.66847 -5.47918e-19)
(0.235182 1.5974 6.65258e-19)
(0.235097 1.96145 -8.04454e-20)
(0.301378 1.72216 0)
(0.221943 1.60467 9.01854e-19)
(0.186223 1.83648 -1.56738e-19)
(0.208182 1.82948 -4.9186e-19)
(0.215153 1.73777 4.60559e-19)
(0.238764 1.71002 3.52439e-19)
(0.227958 1.49859 5.41546e-20)
(0.354859 1.52955 -1.03885e-18)
(0.363588 1.48626 9.36314e-19)
(0.288867 1.50047 0)
(0.181353 1.47042 -6.04402e-19)
(0.0723256 1.62348 1.39468e-18)
(0.157112 1.63701 1.8439e-20)
(0.0333961 1.569 -1.80933e-18)
(0.142051 1.63981 -2.35741e-19)
(0.140949 1.62159 0)
(0.156291 1.58348 -9.82986e-19)
(0.150061 1.60556 7.32024e-19)
(0.0129721 1.52175 0)
)
;

boundaryField
{
    wall-4
    {
        type            noSlip;
    }
    velocity-inlet-5
    {
        type            fixedValue;
        value           nonuniform List<vector> 0();
    }
    velocity-inlet-6
    {
        type            fixedValue;
        value           nonuniform List<vector> 0();
    }
    pressure-outlet-7
    {
        type            zeroGradient;
    }
    wall-8
    {
        type            noSlip;
    }
    frontAndBackPlanes
    {
        type            empty;
    }
    procBoundary22to12
    {
        type            processor;
        value           nonuniform List<vector> 2((0.236948 2.05281 2.59233e-19) (0.159553 1.93815 1.73055e-19));
    }
    procBoundary22to14
    {
        type            processor;
        value           nonuniform List<vector> 6((0.0254849 1.65844 5.18616e-19) (0.133136 1.72534 0) (0.252382 1.73448 3.97353e-19) (0.123848 1.74068 -1.26903e-19) (0.176127 1.64297 -8.24529e-19) (0.189805 1.67024 4.10198e-19));
    }
    procBoundary22to21
    {
        type            processor;
        value           nonuniform List<vector> 3((0.570895 2.11103 0) (0.391042 1.90058 -1.23298e-19) (0.379798 1.75924 4.16601e-19));
    }
    procBoundary22to23
    {
        type            processor;
        value           nonuniform List<vector> 4((0.249392 1.38012 1.05216e-18) (0.315463 1.47342 -2.49554e-19) (0.317645 1.74211 1.58792e-19) (0.250717 1.429 -6.23195e-19));
    }
}


// ************************************************************************* //
