/*--------------------------------*- C++ -*----------------------------------*\
| =========                 |                                                 |
| \\      /  F ield         | OpenFOAM: The Open Source CFD Toolbox           |
|  \\    /   O peration     | Version:  2412                                  |
|   \\  /    A nd           | Website:  www.openfoam.com                      |
|    \\/     M anipulation  |                                                 |
\*---------------------------------------------------------------------------*/
FoamFile
{
    version     2.0;
    format      ascii;
    arch        "LSB;label=32;scalar=64";
    class       surfaceScalarField;
    location    "6";
    object      phi;
}
// * * * * * * * * * * * * * * * * * * * * * * * * * * * * * * * * * * * * * //

dimensions      [0 3 -1 0 0 0 0];

oriented        oriented;

internalField   nonuniform List<scalar> 
48
(
4.77141
-4.77141
4.88886
-0.117455
4.88886
-4.86307
0.0916625
-4.86307
4.18254
0.706324
4.18254
-5.04465
0.181582
-3.06262
3.06262
1.11992
-9.53481
9.41735
5.95124
10.6748
1.37605
-5.60007
-3.93474
5.50841
0.442832
11.1177
7.18293
-0.15367
-5.7748
-5.07412
-3.9542
3.52371
5.06573
-9.01993
-0.709068
-8.3136
1.10375
6.2056
-5.10185
-1.37398
-7.8665
-4.83162
0.132707
3.391
2.86111
2.39442
-5.47208
-10.5739
)
;

boundaryField
{
    wall-4
    {
        type            calculated;
        value           uniform 0;
    }
    velocity-inlet-5
    {
        type            calculated;
        value           nonuniform List<scalar> 0();
    }
    velocity-inlet-6
    {
        type            calculated;
        value           nonuniform List<scalar> 0();
    }
    pressure-outlet-7
    {
        type            calculated;
        value           nonuniform List<scalar> 0();
    }
    wall-8
    {
        type            calculated;
        value           uniform 0;
    }
    frontAndBackPlanes
    {
        type            empty;
    }
    procBoundary20to1
    {
        type            processor;
        value           nonuniform List<scalar> 3(-5.04465 -5.76966 -12.0509);
    }
    procBoundary20to7
    {
        type            processor;
        value           uniform -2.14766;
    }
    procBoundary20to18
    {
        type            processor;
        value           nonuniform List<scalar> 3(2.16509 0.897525 4.92045);
    }
    procBoundary20to19
    {
        type            processor;
        value           nonuniform List<scalar> 5(5.92847 0.466691 -2.7284 9.24048 4.12255);
    }
}


// ************************************************************************* //
