/*--------------------------------*- C++ -*----------------------------------*\
| =========                 |                                                 |
| \\      /  F ield         | OpenFOAM: The Open Source CFD Toolbox           |
|  \\    /   O peration     | Version:  2412                                  |
|   \\  /    A nd           | Website:  www.openfoam.com                      |
|    \\/     M anipulation  |                                                 |
\*---------------------------------------------------------------------------*/
FoamFile
{
    version     2.0;
    format      ascii;
    arch        "LSB;label=32;scalar=64";
    class       volVectorField;
    location    "6";
    object      U;
}
// * * * * * * * * * * * * * * * * * * * * * * * * * * * * * * * * * * * * * //

dimensions      [0 1 -1 0 0 0 0];

internalField   nonuniform List<vector> 
38
(
(-0.022434 3.23153 1.0214e-18)
(0.321698 3.6375 0)
(-0.130276 3.73252 0)
(0.147901 3.31756 -9.50732e-19)
(0.00727346 3.03243 0)
(0.902735 4.05652 0)
(1.20108 3.33726 1.00895e-18)
(0.0797748 3.11462 0)
(-0.0180444 2.93048 0)
(0.605205 1.70945 -2.12235e-19)
(1.18313 2.49986 5.30062e-19)
(0.618585 1.89646 -1.40086e-18)
(0.446621 3.59002 0)
(0.162366 3.2669 0)
(0.172235 2.92351 3.71749e-19)
(0.388037 3.4945 -4.15163e-19)
(0.248531 3.3409 0)
(0.271592 3.44041 5.40572e-19)
(0.2957 3.01836 -1.44278e-18)
(0.426393 3.22879 0)
(1.03654 3.46099 -3.34627e-19)
(1.22736 3.11244 4.71634e-19)
(1.25049 2.9519 0)
(0.258498 1.20768 5.39034e-19)
(1.0843 3.53628 -7.72155e-19)
(1.08106 3.5054 0)
(1.10803 3.50608 -1.62309e-18)
(0.673582 3.65461 1.65418e-18)
(0.896127 3.21612 4.86824e-19)
(0.889179 2.54723 7.75434e-19)
(0.951758 3.39471 8.29267e-19)
(0.851767 3.23511 -6.39805e-19)
(0.529755 0.979482 0)
(0.654703 0.934769 -1.56548e-19)
(0.757487 0.792327 -5.02024e-20)
(0.818706 2.08383 0)
(0.677678 2.8501 -3.79045e-19)
(0.584235 2.52802 0)
)
;

boundaryField
{
    wall-4
    {
        type            noSlip;
    }
    velocity-inlet-5
    {
        type            fixedValue;
        value           nonuniform List<vector> 0();
    }
    velocity-inlet-6
    {
        type            fixedValue;
        value           nonuniform List<vector> 0();
    }
    pressure-outlet-7
    {
        type            zeroGradient;
    }
    wall-8
    {
        type            noSlip;
    }
    frontAndBackPlanes
    {
        type            empty;
    }
    procBoundary20to1
    {
        type            processor;
        value           nonuniform List<vector> 3((0.0436209 3.02161 0) (0.179885 3.20886 -1.11754e-19) (0.132153 2.82768 -1.10412e-18));
    }
    procBoundary20to7
    {
        type            processor;
        value           uniform (0.334702 0.408354 5.45231e-19);
    }
    procBoundary20to18
    {
        type            processor;
        value           nonuniform List<vector> 3((0.565234 1.34635 0) (0.963721 2.60143 0) (0.963721 2.60143 0));
    }
    procBoundary20to19
    {
        type            processor;
        value           nonuniform List<vector> 5((0.996566 3.33189 -1.38138e-19) (0.666433 0.723105 -1.16248e-19) (0.598015 0.580715 -8.62002e-20) (0.855029 2.61506 -8.10971e-19) (0.856401 3.10271 6.29186e-19));
    }
}


// ************************************************************************* //
