/*--------------------------------*- C++ -*----------------------------------*\
| =========                 |                                                 |
| \\      /  F ield         | OpenFOAM: The Open Source CFD Toolbox           |
|  \\    /   O peration     | Version:  2412                                  |
|   \\  /    A nd           | Website:  www.openfoam.com                      |
|    \\/     M anipulation  |                                                 |
\*---------------------------------------------------------------------------*/
FoamFile
{
    version     2.0;
    format      ascii;
    arch        "LSB;label=32;scalar=64";
    class       volScalarField;
    location    "1";
    object      p;
}
// * * * * * * * * * * * * * * * * * * * * * * * * * * * * * * * * * * * * * //

dimensions      [0 2 -2 0 0 0 0];

internalField   nonuniform List<scalar> 
39
(
0.127957
0.222778
0.179225
0.139203
0.18886
0.280331
0.259406
0.250825
0.28804
0.12564
0.155236
0.0187237
0.100341
0.0914514
-0.0373857
0.0547529
0.321669
0.290378
-0.0294672
0.116757
0.0407816
0.0568677
0.0969337
0.157619
0.249273
0.120377
0.23358
0.229489
0.189983
0.148435
0.146886
0.305626
0.325182
0.160262
0.0581979
0.329732
0.265353
0.192575
0.237777
)
;

boundaryField
{
    wall-4
    {
        type            zeroGradient;
    }
    velocity-inlet-5
    {
        type            zeroGradient;
    }
    velocity-inlet-6
    {
        type            zeroGradient;
    }
    pressure-outlet-7
    {
        type            fixedValue;
        value           nonuniform List<scalar> 0();
    }
    wall-8
    {
        type            zeroGradient;
    }
    frontAndBackPlanes
    {
        type            empty;
    }
    procBoundary17to13
    {
        type            processor;
        value           nonuniform List<scalar> 3(0.249633 0.172129 0.202557);
    }
    procBoundary17to15
    {
        type            processor;
        value           nonuniform List<scalar> 5(0.110434 0.181001 0.0426155 0.111604 0.111604);
    }
    procBoundary17to16
    {
        type            processor;
        value           nonuniform List<scalar> 7(0.116548 0.102524 0.0740731 0.0869703 0.0345684 0.0834694 0.0705008);
    }
}


// ************************************************************************* //
