/*--------------------------------*- C++ -*----------------------------------*\
| =========                 |                                                 |
| \\      /  F ield         | OpenFOAM: The Open Source CFD Toolbox           |
|  \\    /   O peration     | Version:  2412                                  |
|   \\  /    A nd           | Website:  www.openfoam.com                      |
|    \\/     M anipulation  |                                                 |
\*---------------------------------------------------------------------------*/
FoamFile
{
    version     2.0;
    format      ascii;
    arch        "LSB;label=32;scalar=64";
    class       volVectorField;
    location    "2";
    object      U;
}
// * * * * * * * * * * * * * * * * * * * * * * * * * * * * * * * * * * * * * //

dimensions      [0 1 -1 0 0 0 0];

internalField   nonuniform List<vector> 
38
(
(0.0449097 1.77122 0)
(0.0218791 1.71667 0)
(0.257577 2.02615 5.84507e-19)
(0.00617876 1.82099 0)
(0.024698 1.81746 0)
(0.00820477 1.77755 0)
(-0.0107379 1.75444 0)
(0.0161094 1.74779 0)
(0.00994028 1.7228 0)
(0.165051 1.98856 -4.88038e-19)
(0.0161279 1.88709 0)
(0.0754915 1.90316 0)
(-0.0200066 1.78746 0)
(-0.0334311 1.74561 0)
(0.0183844 1.77925 0)
(0.0199721 1.74051 0)
(0.0226734 1.70372 0)
(0.0867588 1.86442 0)
(0.0704141 1.86654 0)
(0.0219416 1.85291 0)
(0.103971 1.87134 0)
(0.114206 1.91249 0)
(-0.0254107 1.7976 0)
(0.0161253 1.84084 0)
(0.0358019 1.82205 0)
(0.0420099 1.80938 3.68276e-20)
(0.126052 1.92375 1.42008e-19)
(0.119 1.92708 -6.18361e-20)
(0.065559 1.80609 0)
(0.0176188 1.81482 0)
(0.0401053 1.80364 0)
(0.0303606 1.81688 0)
(0.0777356 1.77362 1.50889e-19)
(0.0803011 1.77079 -8.17143e-20)
(0.083902 1.75501 -5.05713e-20)
(0.0469639 1.78828 -3.4655e-20)
(0.0416299 1.7892 -5.01788e-20)
(0.0139783 1.75878 -9.46896e-21)
)
;

boundaryField
{
    wall-4
    {
        type            noSlip;
    }
    velocity-inlet-5
    {
        type            fixedValue;
        value           nonuniform List<vector> 0();
    }
    velocity-inlet-6
    {
        type            fixedValue;
        value           nonuniform List<vector> 0();
    }
    pressure-outlet-7
    {
        type            zeroGradient;
    }
    wall-8
    {
        type            noSlip;
    }
    frontAndBackPlanes
    {
        type            empty;
    }
    procBoundary12to13
    {
        type            processor;
        value           nonuniform List<vector> 5((-0.0277541 1.77605 0) (-0.0166731 1.78492 0) (0.064698 1.76273 0) (0.0461366 1.76323 1.16913e-19) (0.0161306 1.77575 -1.51924e-20));
    }
    procBoundary12to14
    {
        type            processor;
        value           nonuniform List<vector> 3((0.160146 1.78056 1.602e-20) (0.0442257 1.71646 0) (0.0840035 1.7535 -4.02208e-20));
    }
    procBoundary12to15
    {
        type            processor;
        value           uniform (0.0102309 1.74964 0);
    }
    procBoundary12to22
    {
        type            processor;
        value           nonuniform List<vector> 2((0.345215 2.08412 -6.22699e-19) (0.227774 1.93642 8.10929e-20));
    }
}


// ************************************************************************* //
