/*--------------------------------*- C++ -*----------------------------------*\
| =========                 |                                                 |
| \\      /  F ield         | OpenFOAM: The Open Source CFD Toolbox           |
|  \\    /   O peration     | Version:  2412                                  |
|   \\  /    A nd           | Website:  www.openfoam.com                      |
|    \\/     M anipulation  |                                                 |
\*---------------------------------------------------------------------------*/
FoamFile
{
    version     2.0;
    format      ascii;
    arch        "LSB;label=32;scalar=64";
    class       volScalarField;
    location    "23";
    object      p;
}
// * * * * * * * * * * * * * * * * * * * * * * * * * * * * * * * * * * * * * //

dimensions      [0 2 -2 0 0 0 0];

internalField   nonuniform List<scalar> 
918
(
0.233977
0.914245
0.0111665
0.233268
-0.00449708
0.881324
-0.827584
0.409159
0.214089
-0.426019
-0.305053
0.204942
0.741894
0.507773
-1.45582
-0.0471456
0.364741
-0.708386
0.212965
-0.00512719
0.476107
0.220711
0.223743
0.214326
0.274813
0.495253
0.622363
0.00790612
0.000761864
-0.00100897
-0.00201607
-0.0208887
-0.0224218
0.764962
0.816051
0.838716
0.182915
0.00737636
-0.679819
-0.754112
-0.742191
-0.87574
0.400227
0.404746
-0.485806
0.410462
0.42466
0.201475
0.213397
0.214302
0.215486
0.214392
0.215799
0.129435
-0.432063
-0.468503
-0.416092
-0.420903
-0.196939
-0.351876
-0.38626
-0.273473
-0.224458
0.138207
0.201982
0.198847
0.209263
0.218772
0.853791
0.825698
0.85183
0.765549
0.782032
0.719856
0.692324
0.528733
0.550134
0.49254
0.48151
-1.8999
-2.87465
-0.853229
-0.594537
-7.11891e-05
-0.0619835
-0.073494
0.352958
0.358115
0.362624
0.377947
0.766411
-0.699072
-0.845108
0.213125
0.211936
0.220409
0.221107
0.217102
0.216219
-0.00460451
-0.0196658
-0.0119558
0.00122986
-0.00803727
0.460135
0.453781
0.214884
0.211928
0.226694
0.248706
0.238092
-0.0193099
0.284089
0.304162
0.305199
0.479003
0.476227
0.48399
0.595901
0.558412
0.659691
0.683085
0.00596144
0.00287843
-0.0430741
-0.0266991
-0.0335428
0.179414
0.172707
0.196912
0.186125
0.188455
-0.0770814
-0.213042
0.0920696
0.115582
-0.587105
-0.653839
-0.764334
-0.777323
-0.88667
0.24318
0.390842
0.394122
-0.502602
-0.420924
-0.564122
-0.346281
-0.414319
0.191987
0.198804
0.193911
0.20913
0.203701
0.205655
0.217672
0.214746
0.216315
0.182095
0.302335
0.0590159
0.0402386
-0.571437
-0.474656
-0.557038
-0.417771
-0.421249
-0.180811
-0.161989
-0.213011
-0.23279
-0.434878
-0.422457
-0.427389
-0.181383
-0.134018
0.130741
0.121501
0.149284
0.155382
0.193921
0.194781
0.196983
0.195634
0.64311
0.665536
0.67295
0.646679
-3.8883
-6.71633
-0.26033
-0.117322
-6.05544e-06
0.00286784
0.00176659
0.00775006
0.00149564
-0.00101904
-0.202084
-0.176412
-0.10235
-0.127757
0.339811
0.341843
0.68092
0.671748
0.666703
0.615294
0.201311
0.203445
0.208874
0.204728
-0.090782
-0.0379089
-0.0605857
0.423779
0.441822
0.43808
-0.0544799
-0.14045
0.0268147
0.0540671
0.3256
0.30872
0.325588
0.368696
0.404815
0.690564
0.708821
0.707114
0.715502
0.759545
0.775955
0.74125
0.160232
0.170043
0.165095
0.200389
0.19786
0.199053
0.194034
0.195754
0.193159
-0.367021
-0.75445
0.179219
0.199343
0.159313
0.167332
0.318802
0.393379
0.374564
0.384086
0.386273
-0.280951
-0.343975
-0.0215323
-0.0546937
0.0793526
0.110827
0.0944424
0.614227
0.574695
0.624615
0.598206
0.559562
0.585669
-0.706253
-2.23656
-1.33802
0.245969
0.0527401
0.143441
-0.225509
-0.267356
-0.249692
0.65517
0.732846
0.358527
0.515349
0.532675
0.445596
0.477613
0.531288
0.454238
0.490503
0.52799
0.510457
0.203515
0.182342
0.174641
0.467805
0.52543
-0.167591
-0.219109
-0.270538
-0.148993
-0.112188
-0.134118
0.700394
0.59001
0.664182
0.211696
0.212374
0.00607612
0.00643008
0.21644
0.216493
0.00382014
-0.00754239
0.124964
-1.16744
-0.178712
0.204731
0.195384
0.212008
-0.41176
0.0857909
-0.369504
-0.277209
-0.2222
0.202065
0.147371
0.113811
0.00722025
-0.0188133
-0.0242487
-0.515136
0.209341
0.207642
0.211523
0.212535
0.213195
0.00564978
0.00305609
0.00309835
-0.0117884
-0.00106935
0.00110387
0.177427
0.19329
-0.474076
0.211657
0.213829
0.213627
0.206547
0.212394
0.21052
-0.0181659
-0.0122153
-0.032914
-0.0681288
0.0474484
0.380155
0.484457
0.337827
0.108184
-0.136498
0.276037
0.344512
0.242587
0.407715
0.378841
0.398619
-0.118739
-0.265595
-0.109381
-0.163703
0.202788
0.201473
0.19356
0.190694
0.206997
0.205115
0.209566
0.206379
0.209412
0.210884
-0.361886
-0.401149
-0.403584
-0.454728
0.0441695
0.29697
-0.0153799
0.0249545
-0.126485
-0.356955
-0.284143
-0.431877
-0.442969
-0.594761
-0.255173
-0.313268
-0.300814
-0.150729
-0.285637
-0.492456
-0.333637
-0.374222
0.196315
0.1949
0.202137
0.208903
0.155619
0.158188
0.129601
0.146682
0.13308
0.0792937
0.112252
0.0896709
0.00358507
0.0101766
0.00466228
-0.0237544
-0.0629488
-0.00375219
0.00743567
0.0140924
-0.00499237
-0.00628054
-0.0322383
-0.0374496
-0.47905
-0.593237
0.657946
0.616393
-0.206295
0.198525
0.204923
0.201728
0.206623
0.209626
0.210404
0.208174
0.204774
0.194064
0.195989
0.191794
0.192375
-0.417907
-0.553398
-0.374562
-0.440727
-0.18692
0.315384
0.0600232
0.00110545
-0.00333072
0.208788
0.609932
0.415351
0.435285
0.460577
-0.665875
-0.262717
-0.595785
0.0252838
-0.156396
0.378025
0.430253
0.453343
0.399249
0.348559
-0.440425
0.214718
-0.359853
-0.3167
-0.127695
-0.230351
0.421443
0.362753
0.370793
0.38802
0.40938
0.368058
0.34578
0.343572
0.380753
0.385485
0.181383
-0.0360853
-0.0816525
-0.117813
0.346948
0.221255
0.275615
0.193705
0.197624
0.200469
0.19901
0.182302
0.189245
0.185292
0.190655
0.193366
0.202772
0.203055
0.198496
0.200777
-0.398184
-0.397459
-0.350349
-0.43988
-0.431525
-0.482175
-0.386967
-0.213562
-0.230721
-0.0823536
0.0341201
-0.253199
-0.385707
-0.354624
-0.323853
-0.129251
-0.113241
-0.253958
-0.127926
-0.135043
-0.172036
-0.0226986
-0.0365333
-0.527376
-0.573561
-0.507152
-0.490055
-0.280062
-0.221436
-0.185433
-0.301476
-0.478131
-0.244653
-0.169648
-0.444568
-0.522718
-0.521937
-0.392738
-0.0163186
-0.0239559
-0.0494361
-0.163116
-0.12077
-0.173463
0.192362
0.193283
0.193415
0.20573
0.217245
0.232383
0.198564
0.175005
0.168007
0.17049
0.145841
0.154825
0.150727
0.163157
0.182491
0.188706
0.188784
0.190703
0.1755
0.176021
0.165104
0.168681
0.146455
0.129626
0.119101
-0.0102009
-0.000559451
-0.00602027
-0.0247583
0.00402097
-0.00511157
-0.138926
-0.0509354
-0.0805929
-0.0708977
-0.155446
0.008761
-0.0017237
-0.391109
-0.315751
-0.503956
-0.530529
-0.601303
0.569303
0.674331
0.507603
0.290076
0.28801
0.51535
0.614489
0.258764
0.425069
0.455296
0.217053
0.491485
0.203473
0.202851
0.200383
0.199893
0.201342
-0.332696
-0.237087
-0.220762
-0.170842
-0.0573111
0.0574315
-0.0391238
-0.156162
-0.0179386
-0.00665435
0.310207
0.326541
0.270541
0.296051
0.296031
0.122043
0.197302
0.25144
0.207499
0.251215
0.273149
0.234024
0.264151
0.211505
0.170123
0.169181
0.116652
0.136612
0.114592
0.0974156
0.193443
0.172104
0.18176
0.174435
0.193913
0.221419
0.217057
0.241073
0.25352
0.179423
0.142382
0.151085
0.177674
0.140895
0.153358
0.167466
-0.121203
-0.217774
-0.130119
-0.424778
-0.332889
-0.348883
-0.394559
-0.357241
-0.0698794
-0.774856
-0.741292
-1.37957
0.148474
0.637156
0.378147
0.351767
0.407827
0.385444
0.387984
0.418722
0.425047
0.33787
0.356527
0.35954
0.307274
0.332765
0.363686
0.359752
0.191511
0.0727775
0.0626222
0.0258251
-0.0938693
-0.0637838
0.136497
0.0604075
-0.0101515
-0.00491482
0.157237
0.0501149
0.112968
0.150728
0.0845764
0.0431687
0.238275
0.30598
0.295536
0.270701
0.185844
0.197055
0.223168
0.259239
0.28489
0.319671
0.190026
0.195728
0.197011
0.194785
0.192176
0.194907
0.194862
0.197406
0.198341
0.201084
0.200062
-0.471987
-0.494936
-0.407398
-0.441444
-0.345195
-0.330261
-0.255614
-0.292098
-0.425201
-0.383228
-0.374006
-0.389211
-0.404001
-0.418872
-0.181575
-0.16451
-0.19075
-0.236396
-0.0531497
0.0724038
0.134167
0.0269268
-0.0875678
-0.0561357
-0.0294924
-0.420125
-0.399817
-0.521622
-0.35722
-0.327338
-0.393642
-0.308906
-0.318492
-0.461889
-0.447839
-0.222166
-0.0609645
-0.088518
-0.13808
-0.119197
-0.0799014
0.177983
0.172847
0.172251
0.167256
0.166481
0.17853
0.182835
0.184937
0.189925
0.191145
0.182862
0.186936
0.190243
-0.0745228
-0.00357219
-0.0207174
-0.0646799
-0.0240654
-0.00770325
-0.0277848
-0.202313
-0.277195
-0.272479
-0.320104
-0.441095
-0.386119
0.140951
0.12924
0.149027
0.363223
0.219362
0.131595
0.220221
0.32449
-0.0547822
0.136705
-0.0287625
0.542595
0.428066
0.575727
0.206114
-0.0999673
0.0475527
0.102423
-0.096212
-0.0215879
0.00197666
-0.108392
-0.0759642
-0.0481493
0.0522458
-0.0734564
-0.103859
-0.350944
-0.169851
-0.0337905
-0.0543559
0.074658
0.13683
-0.0910991
-0.167669
-0.204924
0.300168
0.320506
0.337672
0.308195
0.331453
0.256003
0.247283
0.266078
0.276715
0.269879
-1.10996
-0.820761
-1.76086
-1.06933
-0.624699
0.178796
0.13366
0.431732
0.319515
0.400266
0.381015
0.338829
0.300065
0.310727
0.348457
0.0497088
0.156618
0.130859
0.140051
0.0447258
-0.0220901
0.273733
0.267649
0.303962
0.328096
0.29641
0.329581
0.188289
0.187969
0.186877
0.184172
0.18247
0.184539
-0.269056
-0.341333
-0.242769
-0.256845
-0.28375
-0.32762
-0.112192
-0.120082
-0.0899113
-0.080335
-0.0571156
-0.110302
-0.179188
-0.23241
-0.299946
-0.270097
-0.33177
-0.395614
-0.419177
-0.315358
-0.227727
-0.233652
0.0707286
0.318424
0.148068
0.314055
0.149104
0.207734
0.14777
0.140791
0.176363
0.0418234
0.117707
-0.134685
-0.633828
-0.541654
0.440803
0.461202
0.242991
0.0479889
-0.175389
0.0234961
0.220754
0.15914
0.199293
0.266997
0.259415
-0.343504
-0.268012
-0.0346216
0.192486
-0.110516
-0.119077
-0.122441
0.0402584
-0.027866
)
;

boundaryField
{
    wall-4
    {
        type            zeroGradient;
    }
    velocity-inlet-5
    {
        type            zeroGradient;
    }
    velocity-inlet-6
    {
        type            zeroGradient;
    }
    pressure-outlet-7
    {
        type            fixedValue;
        value           uniform 0;
    }
    wall-8
    {
        type            zeroGradient;
    }
    frontAndBackPlanes
    {
        type            empty;
    }
}


// ************************************************************************* //
