/*--------------------------------*- C++ -*----------------------------------*\
| =========                 |                                                 |
| \\      /  F ield         | OpenFOAM: The Open Source CFD Toolbox           |
|  \\    /   O peration     | Version:  2412                                  |
|   \\  /    A nd           | Website:  www.openfoam.com                      |
|    \\/     M anipulation  |                                                 |
\*---------------------------------------------------------------------------*/
FoamFile
{
    version     2.0;
    format      ascii;
    arch        "LSB;label=32;scalar=64";
    class       surfaceScalarField;
    location    "23";
    object      phi;
}
// * * * * * * * * * * * * * * * * * * * * * * * * * * * * * * * * * * * * * //

dimensions      [0 3 -1 0 0 0 0];

oriented        oriented;

internalField   nonuniform List<scalar> 
1300
(
3.75095
5.62643
-5.84451
3.75095
-5.77977
5.62643
-4.5231
4.5231
-1.18143
1.18143
1.87654
1.87441
-2.92148
2.92148
-2.72452
2.72452
-2.5944
2.5944
-5.2464
5.2464
-5.06843
5.06843
4.68171
-4.68171
-4.62721
4.62721
-1.6247
1.6247
-3.91433
3.91433
3.17044
-3.17044
-4.3161
4.3161
-0.388269
0.388269
-0.553486
4.30444
3.19747
3.19747
-2.28188
2.28188
-4.85611
4.85611
6.21816
-6.21816
8.83591
-8.83591
-2.99141
-3.43202
1.35739
-8.39964
-4.42238
-4.42238
-8.4404
8.4404
-2.81397
2.81246
2.94263
-2.94263
-1.77113
1.77113
-4.45073
-0.0723725
-4.45073
4.52958
-0.00647155
4.52958
-1.3183
0.136865
-1.3183
3.99057
-3.99057
1.01332
0.168116
1.01332
3.06435
-3.06435
-1.87706
3.7536
1.8739
-1.87172
6.17616
-1.87923
3.75364
-5.86814
5.86814
-3.15786
0.236378
-3.15786
2.64293
0.278552
2.64293
-5.72651
5.72651
-2.3651
-0.35942
-2.3651
3.14362
-0.419096
3.14362
2.85047
-2.85047
-2.65764
0.0632472
-2.65764
2.53751
0.0568895
2.53751
0.353565
5.27287
-5.97999
8.79245
-5.27287
0.0264648
5.20843
0.0379714
5.20843
-5.1061
0.037669
-5.1061
5.01094
0.0574951
5.01094
4.77712
-0.0954126
4.77712
-4.79389
0.112187
-4.79389
-3.28733
-3.62896
-4.67284
0.0456294
-4.67284
-1.63816
0.0134644
-1.63816
1.60622
0.0184845
1.60622
-3.5098
3.5098
-4.30998
0.395647
-4.30998
3.12494
0.0454993
3.12494
1.86849
1.88246
5.61945
-5.61945
2.449
-4.13116
-0.184934
-4.13116
-4.48797
-4.34794
4.48797
-0.171875
-0.66405
0.275782
-0.66405
3.15929
0.0381777
3.15929
2.45039
0.0871166
-2.45039
0.16851
3.29593
-3.29593
1.6579
0.623974
1.6579
-5.56982
5.56982
4.95088
0.0600583
-4.95088
0.0947713
6.15715
0.0610094
6.15715
-6.19961
-0.0185535
-6.19961
3.2491
-6.68112
-3.51777
4.52116
0.106051
-4.52116
0.0987791
2.91272
0.0299111
2.91272
-2.92398
2.92398
-2.98194
0.0393055
-2.98194
-2.18353
0.412398
-2.18353
1.45531
0.31582
1.45531
-4.31017
-0.140564
-4.31017
-4.4621
0.15212
4.4621
0.0674779
0.983404
-0.983404
-1.45653
0.138229
-1.45653
-4.13819
-0.171982
4.13819
-0.14762
-3.88038
-0.110189
-3.88038
-3.0227
0.0407648
3.0227
0.0416433
3.11222
0.0470688
-3.11222
0.0478726
-1.87087
3.75333
-1.88009
3.75398
-5.46034
-0.407803
-5.46034
6.18437
-0.316225
6.18437
3.52669
0.387645
-3.52669
0.368831
2.45211
0.190813
2.45211
-6.14629
0.419782
-6.14629
5.24785
0.478658
5.24785
2.30787
0.144241
-2.30787
-0.0572314
3.52156
-0.377941
3.52156
2.88506
-0.0345874
2.88506
-2.84696
-0.00350634
-2.84696
2.80231
-2.80231
2.73064
0.0716704
-2.73064
0.0729939
-11.1326
11.1141
-0.0349568
-11.0977
5.17347
5.17347
4.20675
0.570373
4.20675
-5.00578
0.211881
-5.00578
3.21239
-6.73016
3.58563
-6.87296
3.58908
-11.9887
3.35313
-6.98209
4.79496
-4.79496
4.70014
0.0948141
-4.70014
0.0273046
-1.65848
0.0203166
-1.65848
-2.89248
-0.617326
-2.89248
4.16039
-0.650586
4.16039
-3.03073
3.03073
-3.07886
0.0481317
3.07886
0.0460875
3.87577
-0.354204
-3.87577
-0.255398
0.845753
0.167566
-0.845753
0.181702
3.51161
-0.215684
3.51161
-3.09723
-0.198703
-3.09723
-1.66369
0.00520382
1.66369
-0.00578018
-5.81619
0.246366
-5.81619
-11.1908
0.0930718
-11.1528
-6.10653
-6.10653
2.33387
11.1263
-2.87816
0.0311965
2.87816
0.0345646
2.97888
0.0518434
-2.97888
0.0549054
-2.86629
0.0639798
2.86629
0.0576901
-2.56817
0.384645
-2.56817
-1.03931
1.03931
-1.2265
0.187185
1.2265
0.228813
1.2171
-0.233696
1.2171
1.56201
0.0442013
-1.56201
0.105486
-3.78884
-0.0915391
-3.78884
6.36669
-0.182324
6.36669
-2.96591
-0.13132
2.96591
-0.0808496
-0.0333198
11.1474
-5.14015
0.034051
5.14015
-11.2084
11.2425
-3.24799
0.679821
3.24799
0.958753
5.29379
0.27603
-5.29379
0.288017
4.99114
0.256713
-4.99114
0.196184
-2.38775
-0.504722
-2.38775
-4.88346
-0.576881
4.88346
-0.72307
-11.4747
-0.203869
11.6786
-11.4172
6.02006
0.137093
-6.02006
11.3796
-0.935267
-0.0481377
0.935267
0.104045
1.53301
-0.315907
1.53301
3.69317
-0.181558
-3.69317
-0.0956683
-6.36963
0.223338
6.36963
-0.00294016
-1.94405
-0.443702
1.94405
-0.411046
-4.26658
4.30476
1.90958
-3.12368
-3.55743
-7.47162
1.85224
1.90109
4.30124
-7.50984
-4.47888
-7.41106
7.27139
-6.98338
-9.2985
9.20309
7.53146
-7.64165
-5.785
5.83108
6.48181
-6.44016
1.87864
1.87496
7.87315
-7.63677
-15.5937
15.1859
5.91002
-6.26944
16.3948
-15.975
-17.1282
17.3849
-5.76039
5.82364
-6.65809
6.65458
-6.85205
6.7712
-2.9822
-3.89076
10.1684
-10.1228
10.6859
-10.8708
-8.47499
8.87064
3.38269
0.922067
3.42976
-1.88239
3.76103
-1.87125
3.78083
3.61675
-6.59896
3.11341
-6.67084
5.8148
4.87111
-5.64292
-1.8287
-5.91509
5.945
-5.82232
5.88001
8.90736
-8.97973
-1.88539
3.76035
-1.86859
3.76967
-3.42538
-2.35962
3.37988
0.921363
6.09091
4.07749
-6.19696
-1.2141
-7.74632
7.56476
-8.02797
7.82927
-0.450051
5.82249
-5.37244
4.40606
-1.55397
7.37647
5.71742
5.9293
5.86786
-5.59183
1.11552
-6.48796
-6.39319
-2.55217
2.6904
2.53392
-2.36581
5.92136
1.6101
5.77374
-5.51743
-2.12423
-5.60897
3.8213
2.00978
3.86943
4.07676
2.40505
4.11753
3.03095
-3.03542
0.00446975
-3.05635
6.0873
0.724933
-5.41597
-4.49461
4.64785
3.22529
4.92641
-5.47731
-2.15946
-5.10848
-9.49587
-6.09786
-10.0728
10.0612
5.12471
9.745
-11.9628
11.9598
4.38977
1.52025
3.97067
-3.67678
-2.59266
-3.73401
13.1694
-2.52066
-10.6487
-10.4455
-6.68266
9.96686
6.42792
9.88945
7.49544
10.0856
4.10139
9.06796
-10.5293
3.84665
-3.8716
-1.88879
-3.7986
3.73669
2.08694
3.79358
-4.18693
-2.47115
-4.15574
-4.21575
-2.6363
4.25034
2.40424
-4.3081
-3.71987
4.43942
2.33178
3.43051
-7.90939
3.55158
-7.44234
-7.38715
-2.73562
-7.35984
4.58453
2.04256
-6.62709
-2.01443
10.514
-5.64286
8.68527
-6.10687
-4.76398
-6.36227
-6.82181
-1.65318
-6.6697
-8.83677
8.33205
-9.14496
8.49437
12.7318
-5.72405
-7.00779
-3.968
-2.47216
3.92013
-0.490366
-3.71177
3.71624
0.0492636
3.83009
4.75216
4.26179
-3.88534
-1.93698
-3.83044
3.83252
2.04749
3.89649
6.74708
2.16027
6.74061
-6.39599
-2.58374
-6.53655
9.10147
-8.68907
2.96654
-2.96133
5.23396
2.59531
-5.01827
-2.72804
6.07049
-3.0353
-3.03519
-12.2161
10.5852
1.63091
-4.83962
-0.433564
-0.0452956
-5.51051
-3.78799
5.39833
0.530975
11.1162
7.32817
-5.51445
5.76081
6.16415
6.22421
-0.168983
5.85722
-5.1774
5.32316
-2.38818
-2.93498
5.26894
-5.44092
-1.26761
-5.24509
3.97748
0.332823
1.82902
-1.55324
-2.05096
-0.501209
-1.94547
1.53421
0.999709
1.70178
0.989596
1.7008
-2.92498
0.52814
2.39684
-1.93539
-1.83766
-3.62446
-1.03603
4.66049
5.51618
2.04858
-5.42051
-0.188457
2.72923
-2.71074
-0.751317
-2.87314
2.13852
-2.88983
-3.51967
-1.91641
5.43608
-3.36948
-0.460954
3.31764
0.551792
-3.82329
-2.0918
3.78399
0.333539
-3.12362
6.19043
-3.06682
-5.06059
2.5294
3.5579
4.53919
-4.78956
2.44537
2.34419
-1.23166
3.58255
1.34385
3.77337
-6.94407
4.78462
5.69922
3.17142
-6.08686
0.978381
-5.96569
8.44528
-7.21125
-1.23403
4.00347
4.4418
7.18126
5.55058
-5.74747
12.9287
-1.01257
-6.19868
6.97826
-3.80684
4.78747
-8.59431
-10.338
4.13936
-9.29117
11.5277
-2.23649
-3.5886
-8.37417
12.8798
-1.1885
-11.6913
8.5565
-4.95825
-3.62991
8.58816
-7.47891
6.22257
-1.69579
-4.52678
-10.3996
-5.5754
10.1763
1.78358
-9.65586
13.5025
-0.587894
4.19447
-0.223803
3.81653
3.41778
-6.33063
2.91285
4.06113
-5.75692
1.39349
-7.72413
-5.90598
10.4458
-4.5398
-8.64161
-8.66885
0.0272417
1.40267
12.0998
-8.89811
5.84824
3.04986
3.30765
0.588849
-3.37932
-0.419288
0.337242
4.52203
-4.85927
4.13083
4.21794
3.40516
1.11688
3.82566
2.11934
-3.86022
-0.295512
-4.1229
1.4866
-1.71866
-3.653
5.1396
-4.08056
0.427563
-2.72721
-3.55812
6.28533
-4.616
3.04289
3.14754
5.09039
-4.94581
1.38769
-2.44026
-2.50555
2.69287
-4.41153
1.96216
3.17743
4.29394
0.574068
5.59761
4.84818
-7.64017
0.197827
8.92566
-7.71157
2.77181
7.31382
-8.62006
-0.0487922
-7.40864
0.457339
-6.1002
-6.16975
5.10932
-6.7625
-3.48498
6.16344
0.577167
-6.23092
-0.438774
-5.98069
-2.85608
-6.42439
-3.05965
-6.08531
-8.80712
-1.62941
-7.17771
6.70264
-6.646
-3.42675
7.36907
1.1253
-7.36765
7.31951
-7.43921
7.12331
0.0945795
3.62166
4.35637
1.88421
-2.39
4.27421
-5.06103
7.2213
-8.44871
3.38769
3.93652
-6.52026
-4.5122
5.03704
4.06443
5.35286
8.97087
-10.5734
1.60251
-10.8834
12.1532
-1.26981
-16.6621
5.77879
-7.69128
2.7056
0.260939
2.72591
0.676913
2.41317
-3.09008
-2.28442
-2.2902
-2.28467
-3.34114
5.6258
1.1236
-3.33739
2.21379
-3.46285
4.58645
-0.0755636
-3.26183
5.23705
-2.82388
5.49799
-3.53841
1.95958
3.24661
5.54649
-2.29989
4.27595
-1.68063
1.79324
-4.09312
-1.5479
-3.01886
5.10581
-3.26647
3.69403
-0.246531
3.94056
-4.02111
0.985808
-0.61595
3.60199
3.7705
4.22136
-3.10448
2.90695
-4.58758
-1.18617
-4.01351
-0.836081
-0.322499
-3.7441
4.0666
6.08378
-6.40628
-5.29458
9.6112
-4.31662
7.74178
-5.42785
-2.31393
-4.28719
-4.40187
3.90255
1.95467
9.69645
0.205924
-5.63378
-4.97147
-4.01272
3.24195
2.08121
-2.0407
3.6716
2.08599
-0.256975
0.562402
1.13938
1.89161
-1.3292
0.232157
1.65945
-1.32108
2.01485
0.714374
-2.05905
0.113581
-1.3507
3.48921
1.04614
-2.04585
0.716648
1.03996
-3.42814
4.71378
-2.44034
-2.27343
5.75374
1.14453
-3.58487
4.10056
-3.76774
2.28623
-3.32226
-1.29864
-5.06638
-3.45628
-2.46377
4.67756
-3.16203
5.21062
1.15789
-5.02216
6.18005
-3.54253
1.62612
-3.03214
3.74651
-1.04392
-1.98822
2.75106
2.68501
-2.91085
0.0377058
-0.159785
2.29561
-2.45539
-0.594227
-2.52961
-4.57263
4.90617
-2.10663
4.552
2.16758
-1.91362
6.46562
1.81241
-3.72602
-3.24819
-3.70914
-1.38183
3.15735
-0.385699
-3.34831
-4.91248
3.20407
0.569294
-7.02508
7.36276
-0.337675
-3.79979
-0.98483
4.9883
-5.72103
-0.0358936
-4.32754
3.03522
4.37908
4.94837
-11.3665
-0.324813
-6.24175
1.193
-7.43475
5.63481
-3.61728
7.75664
-10.4368
7.01
-9.31145
6.52261
-0.912142
7.19726
-4.28441
3.45144
-9.02684
-7.24326
5.14568
-3.62543
4.92188
-4.37483
9.29671
-4.96273
6.46639
2.83033
-1.94272
-4.41955
-5.50917
3.56645
0.95722
4.77375
4.95727
-2.83792
4.66176
2.22093
-4.66119
-2.1906
-6.52279
1.8616
-3.37525
-1.9115
3.7731
3.17889
3.76773
1.26755
-3.34845
8.05266
-8.02542
-3.51287
-2.65688
6.10709
-2.54063
4.75709
-7.41397
-1.34311
4.87006
-0.824851
-4.04521
0.853984
-4.33897
1.63353
-5.97249
5.12897
-5.56775
2.18216
-9.87343
-5.1855
-5.08145
-2.2288
-5.21041
-7.65419
5.42539
-1.8754
5.44411
-8.67075
7.8459
-3.48242
8.90781
-5.38836
-1.03603
5.7994
1.3239
10.2317
0.115828
-4.62803
-1.82489
3.95709
-2.1322
1.41706
-3.62827
0.328818
2.43228
3.32146
-6.40976
-0.110501
-4.73853
-3.91996
7.98438
5.69124
11.775
1.20165
9.19699
-1.21261
10.3986
4.14025
4.36906
-2.99404
4.59654
1.07256
4.46025
-0.858655
2.81824
1.86726
1.88072
0.830017
2.30189
1.46861
3.2877
0.197615
-2.09258
4.65701
-8.66973
-0.976769
-8.09935
1.10373
5.74372
-4.63999
3.18107
-1.09986
1.04887
0.112564
-1.74483
1.63227
-2.82241
-2.00181
-0.342357
-1.63872
2.35536
1.8505
-2.01301
-0.809406
0.313487
-3.76977
3.00877
-2.97107
-0.286052
5.89399
-2.70128
0.245889
-1.07516
-2.28372
-2.78493
2.67135
6.17382
0.291799
3.10701
5.19796
3.10616
0.268241
3.62419
-5.86068
-4.09994
-6.1855
-0.55069
4.43761
3.76245
8.33739
6.59277
4.05214
-3.36183
-11.3873
6.52693
-1.93038
5.25712
-1.21191
-4.76058
4.97705
2.24425
-5.55422
-0.0135284
-4.77411
-6.7045
-0.538917
8.38482
-9.69279
8.65677
5.80068
1.37703
-4.3885
-0.692953
4.20131
0.167746
10.5664
-1.12825
-6.89219
8.02044
-4.61547
3.6387
0.881297
2.79031
2.51357
1.4137
-5.47849
-10.1185
-1.89988
-1.52827
-4.17331
0.487176
-2.33767
6.28022
-2.64152
3.96629
5.37893
6.42779
-2.18828
-4.218
6.5049
-2.53862
3.88918
)
;

boundaryField
{
    wall-4
    {
        type            calculated;
        value           uniform 0;
    }
    velocity-inlet-5
    {
        type            calculated;
        value           uniform -3.75095;
    }
    velocity-inlet-6
    {
        type            calculated;
        value           uniform -5.62643;
    }
    pressure-outlet-7
    {
        type            calculated;
        value           nonuniform List<scalar> 8(5.84451 5.77977 6.42342 7.04225 6.91629 6.76688 6.79802 6.94221);
    }
    wall-8
    {
        type            calculated;
        value           uniform 0;
    }
    frontAndBackPlanes
    {
        type            empty;
    }
}


// ************************************************************************* //
