/*--------------------------------*- C++ -*----------------------------------*\
| =========                 |                                                 |
| \\      /  F ield         | OpenFOAM: The Open Source CFD Toolbox           |
|  \\    /   O peration     | Version:  2412                                  |
|   \\  /    A nd           | Website:  www.openfoam.com                      |
|    \\/     M anipulation  |                                                 |
\*---------------------------------------------------------------------------*/
FoamFile
{
    version     2.0;
    format      ascii;
    arch        "LSB;label=32;scalar=64";
    class       volVectorField;
    location    "23";
    object      U;
}
// * * * * * * * * * * * * * * * * * * * * * * * * * * * * * * * * * * * * * //

dimensions      [0 1 -1 0 0 0 0];

internalField   nonuniform List<vector> 
918
(
(0.985158 -0.00052158 0)
(0.00500391 2.96626 0)
(-0.0173401 1.54525 0)
(0.979699 0.00215967 0)
(-0.00153634 1.53611 1.84361e-20)
(-0.00703572 2.94878 -1.87148e-18)
(0.851576 1.19378 7.28706e-19)
(0.396246 0.17936 -9.0131e-21)
(0.999906 -0.000297316 0)
(0.0616286 0.844472 0)
(-0.0561791 0.783816 0)
(0.745144 -0.0116508 0)
(0.0111387 2.93032 0)
(0.00189409 2.79502 0)
(-0.0176674 3.16625 1.08124e-18)
(0.0054736 1.40813 5.12157e-20)
(0.50757 0.0776149 5.65658e-19)
(0.192505 1.21201 6.37861e-19)
(0.96306 0.00508873 0)
(-0.00171467 1.23509 0)
(0.125216 0.233619 -4.72405e-19)
(1.00206 -0.0049863 0)
(1.00022 -0.00977767 0)
(0.975728 -0.00645442 0)
(0.654626 -0.039727 0)
(0.0172415 2.63341 0)
(-0.0150728 2.91016 6.46577e-19)
(-0.0262272 1.56453 0)
(-0.0369562 1.71357 0)
(-0.0260699 1.55679 0)
(-0.00513333 1.88115 0)
(0.00842675 1.56439 -1.45783e-20)
(0.0019659 1.42174 0)
(-0.0206134 2.98759 -6.54631e-23)
(-0.0166996 3.0053 1.45463e-18)
(0.00210559 3.0002 0)
(0.870406 -0.009506 0)
(0.397611 0.935658 -3.15395e-20)
(0.828187 1.21305 -1.01691e-18)
(0.975223 1.04635 9.55271e-19)
(0.696203 1.30967 -1.69046e-19)
(0.694941 1.2996 9.46974e-19)
(0.434659 0.272301 8.79377e-21)
(0.428688 0.165779 0)
(1.16064 0.560458 0)
(0.397781 0.280003 4.1033e-20)
(0.350563 0.177613 -4.25845e-20)
(0.919565 -0.00741809 0)
(1.00028 0.000122898 0)
(0.999908 0.000338967 0)
(1.00359 -0.00779834 0)
(1.00095 -0.00100583 0)
(1.00017 9.61988e-06 0)
(0.0776531 1.79194 -2.42393e-19)
(0.0156874 0.977991 0)
(0.0997587 0.930161 0)
(0.0320124 0.906538 0)
(0.0210114 0.75695 0)
(-0.0933719 1.68169 0)
(-0.054369 0.833257 0)
(-0.0217165 0.668649 0)
(-0.0577228 0.955731 0)
(-0.0495942 0.914796 0)
(0.832977 -0.008582 0)
(0.854874 0.0158084 0)
(0.766803 0.000841409 0)
(0.842722 0.0185609 0)
(0.731808 -0.0160447 0)
(0.0146997 3.0004 6.85149e-19)
(0.0115211 3.00795 0)
(0.0061268 3.00283 0)
(0.0135552 2.99735 7.63957e-24)
(0.00798497 2.95845 -1.0183e-18)
(0.0144925 2.98203 0)
(0.0108185 2.90361 0)
(0.0247776 2.93028 1.36999e-24)
(0.004234 2.82533 0)
(0.0317543 2.91574 0)
(-0.00618891 2.74461 0)
(0.311632 3.56693 0)
(-0.132376 3.64928 0)
(0.141257 3.25711 1.00625e-18)
(-0.0113467 2.98938 0)
(-0.0429162 1.84464 0)
(0.0320169 1.58567 -5.05249e-20)
(0.0095768 1.38639 8.02259e-20)
(0.57083 0.1565 -1.94873e-19)
(0.509787 0.0482082 -1.89283e-19)
(0.554768 0.176767 -5.86716e-19)
(0.500872 0.102651 -3.95676e-19)
(0.216363 0.903787 0)
(0.272961 1.3582 -6.61258e-19)
(0.393969 1.31394 1.0867e-18)
(0.987681 0.00858434 0)
(0.942152 0.00596395 0)
(1.00029 0.000578562 0)
(1.00286 0.00930025 0)
(1.00301 0.00846955 -1.10127e-18)
(0.991933 0.00967083 8.316e-19)
(-0.0217784 1.38356 0)
(-0.0218392 1.19805 0)
(-0.0360201 1.56961 0)
(-0.0232183 1.45443 0)
(-0.00207767 1.28883 0)
(0.184351 0.242864 1.45582e-19)
(0.231259 0.219441 0)
(0.993539 -0.00832015 0)
(0.954378 -0.00639768 0)
(0.810435 0.0264338 0)
(0.776523 0.0379732 0)
(0.70796 -0.030871 0)
(0.980215 -0.0036525 0)
(0.716568 0.0538652 0)
(0.561854 -0.019172 7.56161e-19)
(-0.0356836 2.86565 3.30964e-19)
(0.0427992 2.90858 0)
(0.0564528 2.88342 0)
(-0.0052035 2.69738 0)
(-0.0129869 2.98524 5.93976e-19)
(-0.0182308 2.89541 0)
(-0.0154016 2.9881 -1.87991e-18)
(-0.0133585 2.92523 6.49542e-19)
(-0.0430484 1.79685 0)
(-0.0386021 1.80332 0)
(0.0161549 1.56942 1.13726e-21)
(0.012351 1.5492 0)
(-0.00427496 1.41581 0)
(0.937178 -0.0066414 0)
(0.855782 -0.00921844 0)
(0.864914 0.00820337 0)
(0.948623 -0.00763 0)
(0.883188 -0.00875034 0)
(0.511496 1.13104 2.8569e-20)
(0.563021 1.18531 0)
(0.357215 0.874782 4.3936e-21)
(0.300288 0.73616 0)
(0.934913 1.08386 -2.76062e-19)
(1.04779 0.881729 5.65356e-19)
(0.389216 1.40457 0)
(0.549064 1.37742 0)
(0.550587 1.33652 0)
(0.099695 0.158928 -1.30175e-19)
(0.478224 0.256088 0)
(0.461636 0.154408 1.13341e-19)
(1.01798 0.9359 0)
(1.08499 0.780362 0)
(1.11039 0.722971 -4.95164e-19)
(1.14075 0.619803 0)
(1.19195 0.403811 5.78479e-20)
(0.95726 -0.00883539 0)
(0.962183 -0.0101552 0)
(0.9011 -0.00807243 0)
(0.984174 -0.00914838 0)
(0.974512 -0.00944223 0)
(0.936918 -0.00628332 0)
(1.00018 0.00234574 0)
(1.00085 0.00135066 0)
(0.999925 0.000859199 0)
(0.039982 2.0213 1.54246e-19)
(0.128428 1.70455 0)
(0.0131538 2.11564 4.90208e-20)
(0.0474931 1.87064 -5.59126e-20)
(0.13512 1.20211 -5.28687e-19)
(0.0561737 1.06245 0)
(0.0978517 1.06468 0)
(0.000821625 0.840491 0)
(-0.00109298 0.693765 0)
(-0.0812166 1.95617 2.93471e-21)
(-0.0484275 1.83482 0)
(-0.0447213 1.81471 1.94078e-19)
(-0.0736671 1.51278 -5.43609e-21)
(0.0179074 0.789838 0)
(-0.00824212 0.778077 0)
(-0.00750326 0.64829 0)
(-0.060378 1.08351 0)
(-0.0437873 1.02303 0)
(0.927519 0.0130933 0)
(0.849482 -0.00373859 0)
(0.916511 0.0021635 0)
(0.834167 -0.0112606 0)
(0.812861 0.00551512 0)
(0.903675 0.0162329 0)
(0.881101 0.0184236 0)
(0.787567 0.00413102 0)
(0.0057306 3.06471 -6.02207e-21)
(0.0164162 3.058 0)
(0.0146352 2.96913 0)
(0.0084995 2.87635 0)
(0.930034 3.98745 0)
(1.24596 3.31759 1.01536e-18)
(0.0712637 3.0816 0)
(-0.0268274 2.91041 0)
(-0.0533914 1.79409 0)
(-0.0586336 1.83278 0)
(-0.0469197 1.8114 0)
(-0.0221051 1.87076 4.69519e-21)
(-0.0510213 1.85977 0)
(-0.0315787 1.85296 0)
(0.0126255 1.38635 -3.99721e-20)
(0.0567644 1.59758 -1.65499e-19)
(0.0492453 1.58831 -8.17543e-20)
(0.0104396 1.37044 0)
(0.60259 0.124549 2.87172e-19)
(0.526572 0.018597 -2.80149e-19)
(0.261681 1.53348 0)
(0.258597 0.673314 -2.10222e-19)
(0.169702 1.61859 -7.0432e-19)
(0.236928 1.15526 7.0634e-19)
(0.903161 0.00662327 0)
(0.967716 0.0107844 0)
(0.974811 0.0107704 0)
(0.923983 0.00664907 0)
(-0.0548432 1.20791 0)
(-0.036086 1.31156 0)
(-0.0394041 1.12222 0)
(0.350252 0.276739 3.76969e-19)
(0.294345 0.257548 -4.59425e-19)
(0.301843 0.198063 0)
(1.10578 0.086065 -3.42013e-21)
(1.09062 0.0400004 0)
(1.01809 0.03958 0)
(0.918422 0.0040401 0)
(0.62562 0.094638 0)
(0.657206 0.0686933 -1.21711e-18)
(0.542119 0.00384778 4.64882e-19)
(0.00966958 2.98153 4.19343e-19)
(-0.0328717 2.8669 4.6661e-20)
(0.00379271 3.0502 -1.30139e-20)
(0.0200074 3.04348 4.68024e-19)
(-0.0149996 2.99655 2.16013e-20)
(-0.0130023 2.94945 -8.74198e-23)
(-0.0172919 3.01198 -4.09565e-19)
(0.0148474 3.02391 2.96317e-19)
(0.00733754 3.03682 -4.63065e-19)
(0.927338 -0.00166367 0)
(0.936138 -0.00287936 0)
(0.842246 -0.00738531 0)
(0.957158 0.0113465 0)
(0.943896 0.0129071 0)
(0.883228 0.00660279 0)
(0.919532 0.0151169 0)
(0.927897 0.0145315 0)
(0.840249 0.00718201 0)
(0.719183 1.41479 3.28521e-19)
(0.754268 1.52561 0)
(0.220554 0.354875 2.56789e-20)
(0.185721 0.595212 2.09507e-19)
(0.268189 0.696776 -1.17007e-19)
(0.230577 0.577882 2.13815e-19)
(0.300012 0.7112 7.43324e-19)
(0.107846 0.187609 2.14924e-19)
(0.537948 0.209642 -4.08868e-19)
(0.510914 0.239195 1.06441e-19)
(0.489542 0.135456 2.13487e-19)
(1.18122 0.460812 2.94932e-19)
(1.19827 0.256109 3.07521e-19)
(-0.0118233 2.13703 8.90218e-21)
(-0.0102887 1.93102 0)
(0.969342 0.030564 0)
(0.936681 0.0191979 0)
(0.875105 -0.00372403 0)
(0.0111828 3.07476 0)
(0.01999 2.9441 8.02963e-19)
(0.0165095 2.95652 0)
(0.00606395 2.85074 -7.96669e-19)
(0.00606848 3.09127 1.9027e-19)
(0.00722443 3.08228 0)
(0.788062 1.83062 -2.39722e-19)
(1.2532 2.51378 6.6012e-19)
(0.770756 1.97171 -1.49518e-18)
(0.0210896 2.98412 -3.06762e-19)
(0.0369816 3.00648 0)
(-0.0324704 2.88201 0)
(0.0125856 1.68589 -8.12633e-21)
(0.0560273 1.64862 2.28136e-20)
(0.0245267 1.43544 -1.8244e-20)
(0.277148 1.34142 6.81978e-19)
(0.211729 0.448463 -4.7012e-19)
(0.062121 1.94507 4.63567e-19)
(0.133775 1.83979 -5.80627e-19)
(0.184149 1.44274 8.41277e-20)
(0.00249028 3.11907 -1.11812e-18)
(0.013571 3.1189 1.20994e-18)
(-0.00862147 2.98129 5.14071e-19)
(-0.00362778 2.97786 -4.53478e-19)
(-0.0213208 2.88177 -5.2357e-19)
(0.00871452 3.1002 -1.39516e-18)
(0.00235364 3.10496 1.3725e-18)
(0.237878 0.628173 0)
(0.191662 0.617114 -4.07023e-19)
(0.11306 0.207037 1.83709e-19)
(0.323756 0.831836 6.4832e-19)
(0.171721 0.230006 -9.92085e-19)
(1.19141 0.172458 -5.62985e-20)
(1.19744 0.308875 0)
(1.18022 0.12045 1.20019e-19)
(-0.0569938 2.05917 2.30039e-21)
(-0.0517176 2.12722 0)
(-0.0427364 1.91572 0)
(0.333809 1.23109 -2.46595e-19)
(0.349775 1.04675 -5.26282e-19)
(0.18721 0.324166 9.06e-19)
(1.00584 -0.010986 0)
(1.00761 -0.00762369 2.00919e-19)
(-0.0476523 1.76899 0)
(-0.0545939 1.77175 0)
(1.00224 0.0034822 1.79275e-21)
(1.00352 0.00923908 4.13431e-19)
(-0.025844 1.88857 -6.06641e-21)
(-0.0171659 1.89931 0)
(0.0387952 3.1829 1.16916e-19)
(0.400741 3.50199 0)
(1.12058 0.643831 6.43852e-20)
(1.01316 0.0128818 -2.00626e-21)
(1.02096 -0.0106946 0)
(1.00175 1.19455e-05 7.1736e-23)
(0.140869 1.33798 0)
(0.151198 2.56543 0)
(-0.164376 1.05564 0)
(-0.176561 2.67965 -2.51076e-19)
(-0.234328 2.47722 -1.33526e-19)
(1.00781 0.0201762 3.04813e-21)
(1.05237 -0.000562659 0)
(1.07713 0.0292504 0)
(-0.0673196 1.82999 0)
(-0.0357544 2.00324 0)
(-0.11603 1.64887 0)
(0.289996 1.4632 -4.36781e-19)
(1.0112 -0.00964524 0)
(1.00945 -0.0151872 0)
(1.00249 0.000501841 2.56401e-19)
(1.00548 -0.00498088 -3.0208e-19)
(1.00123 -0.00105387 0)
(-0.0876935 1.80216 0)
(-0.0631883 1.76539 0)
(-0.0670745 1.79038 0)
(-0.099377 1.65807 0)
(-0.0593418 1.71545 0)
(-0.0717432 1.70257 0)
(1.03413 -0.00854575 0)
(1.02059 0.0150154 -1.17343e-21)
(0.780087 1.26016 5.16657e-19)
(1.0022 0.000308275 -2.5433e-19)
(1.00402 0.00524618 3.01495e-19)
(1.00121 0.00208102 0)
(1.01296 0.010181 2.49348e-19)
(1.00809 0.00817333 -3.09373e-19)
(1.00875 0.0145869 0)
(-0.0335775 1.99571 0)
(-0.0302685 1.9416 -2.19479e-20)
(-0.0229975 1.95146 1.91329e-20)
(1.19313 0.258941 -6.4734e-20)
(1.13132 0.0883607 0)
(0.0507702 3.07734 -5.20616e-19)
(0.0679366 2.85116 -4.15208e-20)
(0.146913 3.19626 8.25667e-19)
(0.141032 3.2256 -3.59114e-21)
(0.13907 3.24133 0)
(0.0215217 3.13853 1.13411e-19)
(0.0801327 3.16161 5.0746e-19)
(0.0725207 3.18905 -2.18981e-19)
(0.0250901 3.12863 0)
(0.660871 0.323619 0)
(0.586782 0.37173 0)
(1.09342 0.672855 -2.4786e-19)
(1.09178 0.81027 -9.2e-20)
(1.14972 0.560838 0)
(1.18176 0.504321 0)
(1.01615 0.0130415 -4.61247e-19)
(1.01493 0.0140143 -1.57524e-21)
(1.0251 -0.0105108 0)
(1.02331 -0.012159 0)
(1.00692 0.00253833 0)
(1.01045 0.00340721 0)
(1.00461 0.00159601 0)
(1.00995 0.00617635 0)
(1.00797 0.00619989 0)
(1.00427 0.00437343 0)
(0.131997 1.33415 0)
(0.122477 1.24629 0)
(0.138982 1.39575 0)
(0.131994 1.38857 0)
(0.141346 2.5882 0)
(0.183074 2.64663 -2.10287e-19)
(0.108727 2.64091 0)
(0.0871086 2.64154 -8.85512e-22)
(0.0171573 2.67647 2.08461e-19)
(-0.152949 1.08916 0)
(-0.172594 1.09109 0)
(-0.0854233 1.05959 0)
(-0.0196845 0.946307 0)
(-0.145808 2.34467 4.44672e-19)
(-0.247264 2.57297 -2.79877e-19)
(-0.205206 2.69447 -3.70032e-19)
(-0.215755 2.63842 0)
(-0.221929 2.46692 3.10236e-19)
(-0.169209 2.37265 2.50244e-19)
(-0.205045 2.3317 -3.72189e-19)
(-0.275828 2.52621 3.84922e-19)
(-0.257484 2.56824 4.68197e-19)
(1.01672 0.0308969 4.54475e-19)
(1.00983 0.0193878 2.10987e-21)
(1.00864 0.0291778 -4.72198e-19)
(0.990972 0.0125804 6.06656e-19)
(1.05292 0.00222559 0)
(1.04052 -0.0149774 0)
(1.07415 0.0358609 0)
(1.05812 0.0115093 0)
(1.05569 0.0053694 0)
(1.11529 0.078178 0)
(1.08739 0.0487049 0)
(1.08944 0.040833 0)
(-0.0601055 1.88725 -6.44836e-22)
(-0.0871979 1.86145 0)
(-0.0634861 1.8655 0)
(-0.0524473 2.06406 -1.52312e-20)
(-0.0375576 2.08699 2.02129e-21)
(-0.157941 1.82458 2.18234e-21)
(-0.10677 1.79894 -2.21251e-21)
(-0.139546 1.70956 0)
(-0.106289 1.74753 0)
(-0.0916955 1.75594 0)
(-0.151615 1.59684 0)
(-0.107532 1.51229 0)
(0.378849 1.47757 8.25284e-19)
(0.407633 1.49295 3.23649e-19)
(0.595011 2.4334 -1.55769e-19)
(0.406801 2.52695 4.30861e-19)
(0.356344 2.08956 -4.85054e-20)
(1.02088 -0.00876405 0)
(1.01535 -0.0100824 0)
(1.01477 -0.0155251 0)
(1.0078 -0.00131919 0)
(1.00473 -0.00133557 0)
(1.00759 -0.00471782 0)
(1.00919 -0.00373269 0)
(1.01418 -0.00468812 0)
(1.02173 0.0156344 4.38838e-19)
(1.01747 0.0155526 -5.64445e-19)
(1.02296 0.0185024 -4.40949e-19)
(1.0188 0.0180711 5.52458e-19)
(0.753433 1.31003 0)
(0.687016 1.36646 6.10019e-19)
(0.857023 1.20112 3.54146e-19)
(0.901027 1.1588 -4.71507e-19)
(1.15301 2.61757 -5.44881e-19)
(0.835264 0.104166 2.9532e-19)
(1.1318 0.10221 0)
(1.17541 0.182279 5.65076e-20)
(1.16088 0.157656 2.51455e-21)
(0.987005 0.123287 0)
(0.145778 2.96552 1.41131e-19)
(0.12329 2.87114 -6.74932e-19)
(0.0347548 2.35925 4.84729e-19)
(0.100643 0.0767266 -2.04537e-19)
(0.345236 3.43 -4.38998e-19)
(0.198944 3.32066 0)
(0.24063 3.36509 5.71713e-19)
(0.253961 3.03932 -7.76719e-19)
(0.349155 3.19934 0)
(0.0080444 3.12058 2.65396e-20)
(0.0179793 3.1297 -3.37919e-19)
(0.016374 3.12561 4.97377e-19)
(0.0379325 3.1398 0)
(0.036438 3.15159 0)
(1.21761 2.61886 0)
(0.525755 0.851015 -2.41519e-19)
(1.02283 0.984096 -2.00893e-19)
(0.959841 1.05082 0)
(0.801946 0.94818 5.24551e-20)
(1.04469 0.863713 2.99403e-20)
(0.402236 0.439306 -5.42933e-19)
(0.699617 0.340469 -2.39327e-20)
(0.685174 0.277375 2.28427e-19)
(0.600707 0.401419 1.78808e-20)
(0.536994 0.37833 -7.3313e-19)
(0.670384 0.358261 0)
(0.69716 0.428495 3.74777e-19)
(0.696546 0.426186 0)
(0.630034 0.392422 0)
(0.618132 0.328173 0)
(0.774001 0.593078 1.34079e-19)
(1.19134 0.275772 -5.42827e-20)
(1.18837 0.408349 0)
(1.19981 0.360486 0)
(0.768727 0.197169 3.3854e-19)
(0.823666 0.534054 -1.86372e-19)
(0.735265 0.50242 -3.05057e-19)
(0.914832 0.42002 -2.86789e-19)
(1.01946 0.0144561 3.03724e-19)
(1.0178 0.0139793 -3.10699e-19)
(1.0157 0.0153451 0)
(1.03498 -0.00623896 0)
(1.02924 -0.0095582 -2.79992e-19)
(1.0272 -0.0127393 2.77159e-19)
(1.02527 0.00872292 0)
(1.02426 0.0126273 0)
(1.01136 0.00366096 0)
(1.01425 0.00871809 0)
(1.01506 0.00328649 0)
(1.01421 0.0022115 0)
(0.130064 1.23828 0)
(0.109184 1.083 0)
(0.150923 1.38965 3.50174e-19)
(0.271965 1.45626 2.49539e-19)
(0.175579 1.43489 5.46656e-19)
(0.201946 1.4358 -2.90576e-19)
(0.163465 1.39395 0)
(0.106497 1.58953 2.55904e-19)
(0.0890824 1.5648 0)
(0.346899 2.04168 7.05061e-20)
(0.348458 2.36973 2.40229e-19)
(0.143876 1.45927 -2.23766e-19)
(0.263802 1.36376 1.91904e-19)
(0.179618 1.3753 1.53999e-19)
(0.273819 1.31063 3.14532e-19)
(0.24528 1.57641 -1.87822e-19)
(0.260698 1.62686 -2.06806e-19)
(0.0588471 2.34973 1.19434e-19)
(0.0176382 2.68269 0)
(0.0739701 2.40964 -1.73339e-19)
(0.0514952 2.45721 0)
(0.0844704 2.64588 -2.09852e-22)
(0.0446437 2.69386 0)
(-0.161907 1.45784 5.3272e-19)
(-0.054049 1.63029 0)
(0.0181434 1.30608 0)
(-0.111239 1.24523 -6.00474e-19)
(-0.147756 2.70468 -7.42759e-20)
(-0.0225919 2.74009 -3.10964e-19)
(-0.105979 2.73304 -1.8307e-21)
(-0.450128 2.16713 -1.69525e-19)
(-0.366672 2.10374 1.81923e-19)
(-0.173151 1.18783 0)
(-0.131997 1.20929 0)
(0.16864 1.7856 -6.33852e-19)
(0.127757 1.4752 -7.08789e-19)
(0.093076 1.66583 9.14178e-19)
(0.184077 1.78533 0)
(-0.157737 1.9683 4.7129e-20)
(-0.126991 2.04831 -2.47887e-20)
(-0.159575 2.10713 1.07906e-20)
(-0.437312 2.02924 2.05237e-19)
(-0.25037 2.28405 4.04711e-20)
(-0.265385 2.35281 -2.30987e-19)
(1.02114 0.0228686 -2.99766e-19)
(1.01792 0.0271173 2.99988e-19)
(1.01385 0.0210727 0)
(1.00999 0.0492675 4.33779e-19)
(0.994963 0.0365973 -5.08551e-19)
(0.964068 0.0228198 5.89256e-19)
(1.01034 0.085195 -5.6167e-20)
(1.04031 -0.0079171 0)
(1.04365 -0.00839856 2.50031e-19)
(1.03503 -0.0154979 -2.51241e-19)
(1.06176 0.0407345 -1.37922e-20)
(1.05636 0.0209627 1.22762e-19)
(1.05886 0.0508664 0)
(1.05327 0.0419051 -4.58589e-20)
(1.03948 0.0303992 0)
(1.03544 0.0271477 0)
(1.02746 0.012104 0)
(1.02573 0.0151153 0)
(1.04775 0.0266455 9.57081e-20)
(1.04519 0.018219 -2.16914e-19)
(1.05278 0.0245608 -9.62605e-20)
(1.05124 0.0260778 -1.12007e-19)
(1.06207 0.0586266 2.00279e-19)
(1.07932 0.0519982 0)
(1.08526 0.0942866 0)
(-0.146782 1.95333 2.36045e-20)
(-0.107628 1.86962 -2.75794e-22)
(-0.11862 1.88873 0)
(-0.0872879 1.9586 -2.36317e-20)
(-0.0648192 1.90203 8.7542e-22)
(-0.0750267 1.92844 2.85191e-21)
(-0.140897 2.33344 -2.52253e-19)
(-0.157389 2.17114 5.44735e-21)
(-0.202243 2.23738 -4.21795e-20)
(-0.0728963 2.19192 8.25428e-20)
(-0.0838274 2.2149 2.4742e-20)
(-0.21243 1.76369 -1.29385e-21)
(-0.19376 1.83704 -6.44487e-22)
(0.376073 1.39763 -4.10028e-19)
(0.37285 1.3558 -3.91253e-19)
(0.638282 1.41504 -5.88041e-19)
(0.51108 1.47902 -3.15619e-19)
(0.555688 1.4536 0)
(0.590348 2.40613 1.23854e-19)
(0.654133 2.39404 2.25833e-19)
(0.411272 2.50385 7.93021e-20)
(0.407159 2.55189 -1.75302e-19)
(0.519446 2.5101 2.67263e-19)
(0.548944 2.44672 0)
(0.489202 2.49396 -3.5829e-19)
(0.24204 2.57886 6.03609e-19)
(0.351943 2.55447 -8.23229e-20)
(0.2839 2.63561 -9.0926e-19)
(0.925095 2.37635 2.29768e-19)
(0.828839 2.36788 0)
(1.01032 0.000242841 1.00933e-20)
(1.01476 -0.00575159 -8.24643e-21)
(1.01809 -0.0038994 -1.49249e-19)
(1.01498 -0.000647869 1.49493e-19)
(1.01219 0.00105927 0)
(0.621157 1.26983 0)
(0.628814 1.16704 0)
(0.731374 1.07551 0)
(0.626529 1.1197 0)
(1.18302 2.634 5.61942e-20)
(1.0677 2.37025 0)
(0.840561 2.235 -1.80384e-21)
(0.822351 2.4796 0)
(0.916042 2.56621 1.74853e-20)
(0.951848 2.52143 0)
(0.843547 0.145857 0)
(0.81329 0.1433 8.51239e-20)
(0.928001 0.125251 4.36297e-19)
(0.865493 0.11613 -1.74097e-19)
(0.848335 0.0655675 -5.25623e-19)
(1.0402 0.216495 -2.52455e-19)
(0.957687 0.272315 -1.57784e-20)
(0.904168 0.272945 3.97212e-19)
(0.973181 0.199278 2.95012e-19)
(0.937674 0.159177 -5.50221e-19)
(0.911155 0.169979 7.12706e-20)
(0.938133 0.233937 -1.388e-19)
(0.914781 0.193484 0)
(0.973094 0.157346 -2.63663e-19)
(1.01642 0.164325 0)
(1.00995 0.191003 0)
(1.07782 0.10999 8.51154e-20)
(1.04039 0.156989 -1.3052e-20)
(1.03431 0.2188 -1.32361e-19)
(1.07037 0.191562 0)
(1.027 0.0304063 2.26417e-19)
(1.04497 0.0477718 2.69607e-19)
(1.04174 0.0319878 -2.23332e-19)
(1.04277 0.0531395 -1.81594e-19)
(1.02196 0.0548311 -3.04945e-19)
(0.974935 0.125512 0)
(0.989299 0.0784938 0)
(0.968656 0.0426086 -2.12406e-19)
(0.933463 0.0582313 8.82172e-20)
(1.03021 0.0852516 2.55437e-19)
(1.04624 0.110791 -2.6031e-19)
(1.05083 0.137583 2.37872e-19)
(1.01701 0.124307 0)
(1.05573 0.0980191 0)
(1.04353 0.0806429 -1.08248e-19)
(1.03963 0.0818476 -2.05168e-19)
(0.578675 1.08171 -9.54382e-20)
(0.61972 1.44016 1.96478e-19)
(1.15757 2.75841 1.00609e-19)
(1.22433 3.09625 -7.07649e-20)
(1.24764 2.73458 5.5781e-19)
(1.28024 2.71852 -3.38374e-19)
(1.20704 2.35444 -8.30611e-21)
(1.21055 2.99983 1.93658e-19)
(1.2286 2.96483 -2.13838e-19)
(1.2165 3.24991 -2.68287e-19)
(1.37903 2.98131 3.71492e-19)
(1.37198 2.89866 0)
(0.523593 0.861099 -1.32858e-20)
(0.159987 1.28245 3.7795e-19)
(0.527228 0.512843 3.56347e-19)
(0.364628 0.281832 3.90771e-19)
(0.550619 0.40716 4.11384e-19)
(0.55651 0.485563 -6.39222e-19)
(0.559507 0.490473 5.24073e-19)
(0.517571 0.442301 -2.14039e-19)
(0.460159 0.378484 4.90657e-19)
(0.777307 0.249413 5.84478e-19)
(0.730391 0.298274 0)
(0.726514 0.231516 1.08772e-20)
(0.724714 0.513127 1.91842e-19)
(0.692029 0.482993 -7.09688e-19)
(0.620351 0.478007 1.85235e-20)
(0.631013 0.46084 0)
(0.65717 0.72271 1.54586e-19)
(0.796437 0.750277 6.29665e-20)
(0.7183 0.832753 -8.14358e-20)
(0.839948 0.786903 -1.90116e-20)
(0.872898 0.831027 1.32991e-20)
(0.881447 0.831686 -1.36228e-20)
(0.814424 0.631353 -2.29361e-19)
(0.88899 0.683827 1.76764e-20)
(0.944221 0.698417 0)
(0.933841 0.676915 -1.73784e-20)
(0.983732 0.311283 6.39101e-20)
(1.10116 0.284614 7.96787e-21)
(1.02434 0.250642 1.02995e-19)
(0.966881 0.344239 -1.46741e-19)
(1.01553 0.404266 0)
(1.06252 0.392489 0)
(0.889129 0.353655 5.02564e-21)
(0.831473 0.282242 0)
(0.851792 0.274463 2.0392e-19)
(0.884612 0.278849 -5.77353e-21)
(0.906513 0.423488 7.85394e-19)
(0.869581 0.483628 1.98706e-19)
(0.871523 0.449992 -2.54655e-19)
(0.800705 0.437107 -2.73297e-19)
(0.786192 0.436608 1.85386e-19)
(0.752285 0.418561 -1.82016e-19)
(1.02676 -0.000927001 2.40456e-19)
(1.0199 -0.00012349 0)
(1.01834 0.000825499 1.5978e-19)
(1.02208 -0.00129461 -3.36753e-21)
(1.02193 0.0041191 1.74349e-19)
(1.0206 0.0105666 -3.6599e-19)
(1.02147 0.0100813 0)
(1.02067 0.0108079 -7.72704e-20)
(1.01594 0.00760163 1.93691e-19)
(1.01683 0.0102739 -9.76132e-20)
(1.01774 0.0094892 7.19668e-20)
(0.0199427 1.04487 0)
(0.0973174 1.22473 0)
(0.0908375 1.09314 0)
(0.0589265 0.967275 0)
(0.183084 1.36221 -7.57418e-19)
(0.172939 1.33631 2.45447e-19)
(0.17128 1.4856 1.59408e-19)
(0.145475 1.38456 -1.89797e-19)
(0.177993 1.51378 5.95172e-19)
(0.196764 1.4808 -4.55699e-19)
(0.228 1.35065 -2.63114e-20)
(0.238098 1.29805 -6.79244e-19)
(0.187649 1.22295 7.57255e-20)
(0.180549 1.22309 -7.56253e-20)
(0.104385 2.37441 1.91481e-19)
(0.0947088 2.41646 0)
(0.149982 2.06471 -3.61565e-20)
(0.11612 1.73171 -1.07923e-19)
(0.231992 2.05704 2.62975e-20)
(0.206363 2.45643 0)
(0.269288 2.40889 -1.30601e-19)
(0.298757 2.41011 9.31333e-20)
(0.22317 2.01622 1.05773e-19)
(0.137154 2.1865 -2.42431e-21)
(0.136734 2.31675 0)
(0.0974047 2.12488 6.28019e-19)
(-0.103759 2.59807 6.34582e-19)
(-0.045209 2.45908 0)
(0.0239274 2.57629 -3.07889e-20)
(0.0406043 2.41126 -2.85134e-19)
(-0.275507 1.33868 -6.34578e-20)
(-0.276254 1.35191 9.21715e-19)
(-0.302159 1.4349 -1.95583e-19)
(-0.364396 1.48155 -3.98441e-19)
(-0.235898 1.41793 0)
(-0.309811 1.40775 0)
(-0.179743 1.46461 -8.1418e-20)
(-0.277526 1.49398 2.6469e-20)
(-0.303785 1.41676 0)
(-0.199771 1.31163 -8.26262e-20)
(-0.128198 1.36839 1.42217e-19)
(1.04038 0.00281223 0)
(1.04169 0.00032489 -2.30764e-20)
(1.04513 0.0134987 -1.72431e-19)
(1.05086 0.0107131 0)
(1.05018 0.00802113 0)
(1.03816 0.00468301 -6.60498e-21)
(1.03325 0.00652469 2.83867e-19)
(1.03414 0.0114693 3.43231e-19)
(1.02748 0.0187909 0)
(1.02611 0.0199826 0)
(1.03999 0.0203138 1.73484e-19)
(1.03234 0.0235116 0)
(1.02922 0.0226504 0)
(-0.310867 2.00641 0)
(-0.237781 1.8505 -5.80033e-21)
(-0.252841 1.95903 -1.39561e-20)
(-0.260875 1.57349 0)
(-0.30641 1.79842 -3.4266e-20)
(-0.244447 1.73047 -1.89507e-22)
(-0.235929 1.63977 0)
(0.39411 1.68008 0)
(0.3717 1.28682 6.42253e-19)
(0.302157 1.34062 0)
(0.422605 1.27632 -4.51801e-19)
(0.463303 1.44454 0)
(0.44331 1.39021 3.92682e-19)
(1.0265 2.70468 -4.27608e-21)
(0.947803 2.4118 -3.04879e-19)
(0.885128 2.16457 3.32663e-19)
(0.839039 2.36232 1.18565e-19)
(0.839244 2.51923 0)
(0.905701 2.51456 0)
(0.903045 2.37044 0)
(0.888764 2.34548 -4.45382e-19)
(0.691639 2.49447 -2.34561e-20)
(0.799481 2.48701 -1.51856e-20)
(0.807466 2.45897 1.16306e-20)
(0.686075 2.37359 0)
(0.793133 2.3691 0)
(0.75173 2.38016 -2.27441e-19)
(0.768359 2.50223 0)
(0.587448 1.08947 0)
(0.480698 0.939848 -4.49503e-21)
(0.528777 0.970066 -1.53154e-21)
(0.51276 1.06048 0)
(0.512415 1.01684 9.35994e-21)
(0.740565 0.858581 1.18854e-20)
(0.758937 1.00002 0)
(0.731301 0.955205 -5.95701e-20)
(0.608795 1.02214 0)
(0.614442 0.936958 0)
(1.16166 2.77848 5.48738e-20)
(1.14009 2.84278 1.2381e-19)
(0.93437 2.37149 -2.83322e-19)
(0.901735 2.34535 3.07547e-20)
(1.12477 2.74921 0)
(1.07554 2.72001 -4.22679e-20)
(1.08158 2.49454 -7.59164e-20)
(0.975341 2.23149 -3.03639e-20)
(0.487806 1.37175 0)
(0.497885 1.06952 8.41025e-20)
(0.540179 1.14936 0)
(0.856702 0.21872 0)
(0.819647 0.1768 0)
(0.779481 0.163784 0)
(0.849885 0.2237 -3.20686e-19)
(0.798457 0.221274 1.98025e-19)
(0.940645 0.0505855 -1.81334e-19)
(0.953062 0.0999288 0)
(0.925643 0.104911 8.16355e-20)
(0.888033 0.0808863 3.34405e-19)
(0.878341 0.0467239 -2.05349e-19)
(1.16691 3.3754 -9.81873e-19)
(1.21274 3.29485 0)
(1.16705 3.40201 -1.93272e-18)
(0.653692 3.56236 1.65928e-18)
(0.880766 3.12758 3.77471e-19)
(0.504321 0.886781 2.29275e-19)
(0.432348 0.875737 0)
(0.361055 0.545193 -8.56401e-20)
(0.453177 0.694436 -3.91551e-19)
(0.534819 0.512529 -1.13594e-19)
(0.518623 0.538123 1.32347e-19)
(0.661894 0.528674 2.72558e-19)
(0.688878 0.545445 0)
(0.647985 0.617512 0)
(0.598775 0.549752 0)
(0.941806 0.585758 -5.00483e-20)
(0.873268 0.528476 -1.92138e-19)
(0.896482 0.561431 9.15025e-20)
(0.925472 0.501071 -1.41784e-19)
(1.02871 0.462753 0)
(1.03791 0.555897 -6.78936e-21)
(0.823252 0.391321 -4.11461e-19)
(0.826606 0.374926 6.203e-19)
(0.779303 0.38973 3.22597e-19)
(0.773584 0.357176 -3.63675e-19)
(0.825808 0.308542 -2.70276e-19)
(0.779653 0.313058 3.32465e-19)
(1.02589 0.00518735 -1.79399e-19)
(1.02571 0.00510533 3.64143e-19)
(1.03113 -0.000848108 2.28095e-19)
(1.03205 -0.000162792 -2.75605e-19)
(1.03423 0.00252262 0)
(1.03088 0.00389686 -4.43927e-19)
(0.155852 1.73937 -7.74896e-20)
(0.155958 1.68407 0)
(0.1477 1.7454 -5.31289e-19)
(0.138091 1.72453 4.85765e-19)
(0.163216 1.56193 -2.94027e-19)
(0.236861 1.58195 0)
(-0.468681 2.01461 0)
(-0.420862 1.72278 3.48395e-20)
(-0.390371 1.69409 -3.15784e-20)
(-0.327683 1.82268 -1.10286e-20)
(-0.328892 2.02838 3.84559e-20)
(-0.384621 2.04684 6.33881e-20)
(0.48244 1.38424 4.11252e-19)
(0.476835 1.38711 4.7694e-19)
(0.435259 1.2763 4.14062e-19)
(0.426356 1.29655 -2.51135e-20)
(0.612973 1.27887 0)
(0.53082 1.37015 5.35985e-19)
(0.55298 1.39678 -5.20374e-19)
(0.443515 1.26118 -3.98422e-19)
(0.488568 1.21885 0)
(0.542093 1.17869 0)
(0.661354 2.45445 3.44374e-20)
(0.669341 2.47242 5.41194e-19)
(0.719846 2.489 -3.72017e-19)
(0.628281 2.47424 -1.20579e-19)
(0.567618 2.57163 9.95874e-20)
(0.515995 2.54181 -3.00164e-19)
(0.961546 2.37395 -1.7915e-19)
(1.00593 2.39652 0)
(0.899851 2.1456 -2.48618e-19)
(1.0443 2.7001 0)
(1.04539 2.68737 0)
(0.624876 2.29571 2.40482e-19)
(1.0463 3.17661 4.81926e-19)
(0.917854 3.04602 -4.28342e-19)
(0.295344 0.967086 0)
(0.350284 0.840398 -1.56117e-19)
(0.496254 0.791938 -5.3422e-19)
(0.408257 2.0455 0)
(0.474638 2.79344 -2.62779e-19)
(0.434933 2.55863 0)
(0.673799 0.662246 -3.20648e-19)
(0.743735 0.654599 4.07577e-19)
(0.771462 0.606439 2.85744e-19)
(0.671135 0.631706 4.73397e-20)
(0.720778 0.58715 -1.92507e-19)
(1.00666 2.78408 -3.66369e-19)
(1.03987 2.83936 2.85898e-19)
(0.651486 2.19277 5.53498e-20)
(0.606342 1.73956 -7.02242e-20)
(0.704351 1.92744 1.06522e-19)
(0.991022 2.46699 -6.93705e-20)
(0.993733 2.46467 -1.6044e-19)
(0.67166 1.87917 -5.0123e-21)
(0.457801 1.35242 -1.0972e-19)
)
;

boundaryField
{
    wall-4
    {
        type            noSlip;
    }
    velocity-inlet-5
    {
        type            fixedValue;
        value           uniform (1 0 0);
    }
    velocity-inlet-6
    {
        type            fixedValue;
        value           uniform (0 3 0);
    }
    pressure-outlet-7
    {
        type            zeroGradient;
    }
    wall-8
    {
        type            noSlip;
    }
    frontAndBackPlanes
    {
        type            empty;
    }
}


// ************************************************************************* //
