/*--------------------------------*- C++ -*----------------------------------*\
| =========                 |                                                 |
| \\      /  F ield         | OpenFOAM: The Open Source CFD Toolbox           |
|  \\    /   O peration     | Version:  2412                                  |
|   \\  /    A nd           | Website:  www.openfoam.com                      |
|    \\/     M anipulation  |                                                 |
\*---------------------------------------------------------------------------*/
FoamFile
{
    version     2.0;
    format      ascii;
    arch        "LSB;label=32;scalar=64";
    class       volVectorField;
    location    "6";
    object      U;
}
// * * * * * * * * * * * * * * * * * * * * * * * * * * * * * * * * * * * * * //

dimensions      [0 1 -1 0 0 0 0];

internalField   nonuniform List<vector> 
38
(
(-0.00551551 1.67632 -1.60219e-21)
(0.00824308 1.63475 -2.67817e-20)
(-0.000501087 1.76488 0)
(0.00294739 1.79179 0)
(-0.00299256 1.68895 1.27022e-21)
(-0.00868195 1.63037 0)
(-0.00630323 1.76027 0)
(0.00318454 1.7006 2.64229e-20)
(0.00154127 1.77724 0)
(0.00146299 1.76777 0)
(0.00615258 1.70656 -4.74974e-22)
(-0.00602146 1.69931 0)
(0.00178678 1.63358 0)
(-0.000387211 1.75174 0)
(-0.00801139 1.75247 0)
(-0.00442444 1.75413 0)
(-0.00774412 1.78675 2.11172e-21)
(-0.0115272 1.76999 0)
(-0.0010315 1.77188 0)
(0.0017696 1.77599 0)
(-0.00691257 1.78352 0)
(-0.00896681 1.78651 -2.73307e-21)
(-0.00885033 1.7861 0)
(-0.00526795 1.74903 0)
(-0.000432568 1.78027 0)
(0.0028503 1.73859 0)
(0.00496902 1.76571 0)
(0.00382779 1.75024 0)
(-0.00668161 1.78238 0)
(-0.00247469 1.78748 0)
(-0.00720586 1.78726 1.72858e-20)
(-0.00724811 1.78703 -1.28127e-20)
(-0.00752771 1.78684 -1.57551e-21)
(-0.00585091 1.75667 0)
(-0.0116224 1.77247 0)
(0.00438246 1.74038 2.14205e-20)
(-0.0012733 1.77106 0)
(-0.00050614 1.7683 0)
)
;

boundaryField
{
    wall-4
    {
        type            noSlip;
    }
    velocity-inlet-5
    {
        type            fixedValue;
        value           nonuniform List<vector> 0();
    }
    velocity-inlet-6
    {
        type            fixedValue;
        value           nonuniform List<vector> 0();
    }
    pressure-outlet-7
    {
        type            zeroGradient;
    }
    wall-8
    {
        type            noSlip;
    }
    frontAndBackPlanes
    {
        type            empty;
    }
    procBoundary16to15
    {
        type            processor;
        value           nonuniform List<vector> 4((0.00112024 1.73129 0) (9.81996e-05 1.73865 0) (-0.0105133 1.78669 0) (-0.00384025 1.77444 0));
    }
    procBoundary16to17
    {
        type            processor;
        value           nonuniform List<vector> 7((0.00390396 1.64373 -2.79085e-20) (0.00324128 1.78238 1.34473e-20) (0.0117598 1.77521 2.28156e-20) (0.00250579 1.78147 4.18368e-21) (-0.00471423 1.78301 2.3818e-21) (0.0154692 1.75317 -2.38586e-21) (0.0156457 1.7367 2.09239e-20));
    }
}


// ************************************************************************* //
