/*--------------------------------*- C++ -*----------------------------------*\
| =========                 |                                                 |
| \\      /  F ield         | OpenFOAM: The Open Source CFD Toolbox           |
|  \\    /   O peration     | Version:  2412                                  |
|   \\  /    A nd           | Website:  www.openfoam.com                      |
|    \\/     M anipulation  |                                                 |
\*---------------------------------------------------------------------------*/
FoamFile
{
    version     2.0;
    format      ascii;
    arch        "LSB;label=32;scalar=64";
    class       volVectorField;
    location    "1";
    object      U;
}
// * * * * * * * * * * * * * * * * * * * * * * * * * * * * * * * * * * * * * //

dimensions      [0 1 -1 0 0 0 0];

internalField   nonuniform List<vector> 
38
(
(0.0292465 2.92686 0)
(0.0378582 2.9867 0)
(0.982361 -0.0164513 0)
(0.0201192 2.98519 6.02024e-25)
(0.0249512 2.92018 0)
(0.0787312 2.98419 0)
(0.0920828 2.90031 0)
(-0.0583634 2.85519 2.56967e-19)
(-0.0264455 2.96869 0)
(-0.0494249 3.06307 0)
(-0.0063083 2.91937 0)
(0.995976 -0.0135193 0)
(0.989334 -0.00948704 0)
(-0.0303231 2.97344 2.16615e-19)
(0.0504899 2.9128 -1.38667e-20)
(-0.048616 2.91554 -2.34432e-19)
(-0.0373378 2.8466 0)
(-0.0675643 2.79719 0)
(-0.0814528 3.09319 -2.30579e-19)
(-0.0761087 3.1035 2.93616e-19)
(0.0730432 2.97593 -1.85495e-19)
(-0.0712397 2.94452 2.08663e-19)
(1.00631 0.0423516 0)
(-0.298553 3.0009 -3.26963e-19)
(-0.0555083 3.13457 -7.98193e-21)
(-0.151362 2.9738 8.46443e-19)
(-0.0301997 2.93199 -7.76002e-20)
(-0.0515453 2.97006 1.14856e-19)
(-0.0899958 3.09423 2.99101e-19)
(-0.070237 3.01418 -2.08677e-19)
(-0.104709 3.08561 0)
(-0.399056 2.76989 -5.96968e-19)
(-0.368964 3.13375 1.00749e-19)
(-0.0565925 3.02569 1.21352e-20)
(-0.0806602 3.07854 -2.00194e-19)
(-0.0511401 3.07077 3.3064e-19)
(-0.0471064 3.09634 0)
(-0.0689471 3.01077 0)
)
;

boundaryField
{
    wall-4
    {
        type            noSlip;
    }
    velocity-inlet-5
    {
        type            fixedValue;
        value           nonuniform List<vector> 0();
    }
    velocity-inlet-6
    {
        type            fixedValue;
        value           nonuniform List<vector> 0();
    }
    pressure-outlet-7
    {
        type            zeroGradient;
    }
    wall-8
    {
        type            noSlip;
    }
    frontAndBackPlanes
    {
        type            empty;
    }
    procBoundary1to0
    {
        type            processor;
        value           nonuniform List<vector> 2((0.990029 0.025267 0) (1.03826 -0.0620356 0));
    }
    procBoundary1to2
    {
        type            processor;
        value           nonuniform List<vector> 4((-0.0628816 3.05967 7.86979e-19) (-0.00640582 2.98634 4.17945e-19) (-0.0628816 3.05967 7.86979e-19) (0.102284 2.90977 -2.41316e-19));
    }
    procBoundary1to4
    {
        type            processor;
        value           nonuniform List<vector> 2((0.992546 -0.0267312 0) (1.02871 0.0209625 0));
    }
    procBoundary1to7
    {
        type            processor;
        value           uniform (-0.374116 1.4094 1.73291e-19);
    }
    procBoundary1to20
    {
        type            processor;
        value           nonuniform List<vector> 3((-0.0675613 2.73816 0) (-0.0225992 2.89147 0) (-0.650171 2.76269 6.49078e-19));
    }
}


// ************************************************************************* //
