/*--------------------------------*- C++ -*----------------------------------*\
| =========                 |                                                 |
| \\      /  F ield         | OpenFOAM: The Open Source CFD Toolbox           |
|  \\    /   O peration     | Version:  2412                                  |
|   \\  /    A nd           | Website:  www.openfoam.com                      |
|    \\/     M anipulation  |                                                 |
\*---------------------------------------------------------------------------*/
FoamFile
{
    version     2.0;
    format      ascii;
    arch        "LSB;label=32;scalar=64";
    class       volVectorField;
    location    "1";
    object      U;
}
// * * * * * * * * * * * * * * * * * * * * * * * * * * * * * * * * * * * * * //

dimensions      [0 1 -1 0 0 0 0];

internalField   nonuniform List<vector> 
38
(
(0.476424 0.284485 -2.81374e-20)
(0.742595 0.128728 8.4554e-20)
(0.526128 0.302434 2.69163e-20)
(0.535956 0.281392 0)
(0.462614 0.316901 1.1388e-19)
(0.417374 0.286107 -1.18197e-19)
(0.815407 0.155735 5.41459e-20)
(0.379429 0.353986 0)
(0.563021 0.305636 0)
(0.424927 0.293659 9.57938e-19)
(0.459731 0.263739 -9.08155e-19)
(0.37957 0.289536 0)
(0.645893 0.281176 0)
(0.494593 0.348222 0)
(-0.374116 1.4094 1.73291e-19)
(0.246369 -0.153894 -7.14029e-19)
(0.462461 0.394713 4.85419e-20)
(0.399855 0.326445 -1.89467e-18)
(0.589116 0.391842 0)
(0.600024 0.454583 1.3356e-18)
(0.478276 0.371478 0)
(0.514298 0.352127 0)
(-0.292618 0.253659 5.83381e-19)
(-0.409728 0.60219 -9.20016e-20)
(0.351648 0.37294 1.07161e-18)
(0.298894 0.347716 -1.9401e-18)
(0.263124 0.370327 1.53912e-18)
(0.241369 0.283719 -3.90938e-19)
(0.346621 0.227634 9.82137e-19)
(0.521845 0.481357 7.26418e-19)
(0.395179 0.530532 -2.62115e-18)
(0.360046 0.422194 -4.96657e-20)
(0.424551 0.394519 0)
(-0.233992 0.49699 -1.06097e-18)
(0.125226 0.485067 3.75898e-19)
(0.392026 0.533182 9.42253e-19)
(0.550685 0.535428 0)
(0.152666 0.720729 0)
)
;

boundaryField
{
    wall-4
    {
        type            noSlip;
    }
    velocity-inlet-5
    {
        type            fixedValue;
        value           nonuniform List<vector> 0();
    }
    velocity-inlet-6
    {
        type            fixedValue;
        value           nonuniform List<vector> 0();
    }
    pressure-outlet-7
    {
        type            zeroGradient;
    }
    wall-8
    {
        type            noSlip;
    }
    frontAndBackPlanes
    {
        type            empty;
    }
    procBoundary7to1
    {
        type            processor;
        value           uniform (-0.368964 3.13375 1.00749e-19);
    }
    procBoundary7to6
    {
        type            processor;
        value           nonuniform List<vector> 2((0.439678 0.710361 -1.01736e-18) (0.242501 0.775424 1.40542e-18));
    }
    procBoundary7to8
    {
        type            processor;
        value           nonuniform List<vector> 5((0.568707 0.250307 4.02313e-19) (0.642371 0.27498 -1.13263e-20) (0.591929 0.361194 0) (0.591929 0.361194 0) (0.561234 0.528608 1.62322e-18));
    }
    procBoundary7to19
    {
        type            processor;
        value           uniform (-0.1461 0.830028 -2.43313e-19);
    }
    procBoundary7to20
    {
        type            processor;
        value           uniform (-0.812714 1.74181 4.4032e-19);
    }
}


// ************************************************************************* //
