/*--------------------------------*- C++ -*----------------------------------*\
| =========                 |                                                 |
| \\      /  F ield         | OpenFOAM: The Open Source CFD Toolbox           |
|  \\    /   O peration     | Version:  2412                                  |
|   \\  /    A nd           | Website:  www.openfoam.com                      |
|    \\/     M anipulation  |                                                 |
\*---------------------------------------------------------------------------*/
FoamFile
{
    version     2.0;
    format      ascii;
    arch        "LSB;label=32;scalar=64";
    class       volScalarField;
    location    "14";
    object      p;
}
// * * * * * * * * * * * * * * * * * * * * * * * * * * * * * * * * * * * * * //

dimensions      [0 2 -2 0 0 0 0];

internalField   nonuniform List<scalar> 
918
(
0.223799
0.905141
0.00726976
0.223014
0.000226606
0.872331
-0.840354
0.409085
0.203763
-0.166011
0.0187849
0.19522
0.732784
0.499717
-1.47159
0.0141926
0.362356
-0.701956
0.202115
0.00618919
0.478456
0.210522
0.21354
0.20422
0.260273
0.492373
0.613238
0.00198758
-0.00321613
-0.00207596
0.00369933
-0.00250504
0.00290825
0.755922
0.807078
0.829734
0.173586
-0.0107874
-0.689089
-0.770244
-0.744001
-0.898361
0.397112
0.401651
-0.497158
0.408775
0.423579
0.191648
0.203055
0.204062
0.205198
0.204169
0.205487
0.275328
-0.213048
-0.283988
-0.102608
-0.0772948
0.0730447
0.0211096
0.0121676
0.0221782
0.0220977
0.132393
0.191976
0.18835
0.200155
0.209048
0.844696
0.816516
0.842672
0.756629
0.773063
0.710682
0.683227
0.519788
0.541323
0.486235
0.476585
-1.91578
-2.89036
-0.869503
-0.61012
0.00194281
0.0210539
0.0261639
0.343409
0.351012
0.354177
0.366624
0.764274
-0.690578
-0.802052
0.201972
0.200877
0.210188
0.210875
0.206907
0.206071
0.0136329
0.0211018
-0.00327021
0.005073
0.00365697
0.45888
0.454977
0.204839
0.201677
0.216768
0.240297
0.229056
-0.0244162
0.275776
0.302013
0.294407
0.473462
0.471407
0.478587
0.586517
0.54993
0.650589
0.673678
0.00708716
0.00179378
0.0108798
0.00786405
0.0111846
0.170603
0.165299
0.184492
0.175076
0.177675
-0.0876556
-0.217606
0.0638532
0.0843551
-0.596029
-0.671158
-0.752222
-0.778909
-0.863003
0.188425
0.383672
0.386892
-0.512194
-0.425636
-0.579292
-0.3496
-0.423704
0.180996
0.189323
0.183887
0.198659
0.193495
0.194915
0.207331
0.204491
0.205971
0.292614
0.360434
0.228179
0.211422
-0.535781
-0.354921
-0.499101
-0.0423445
-0.0289089
0.0850059
0.0966631
0.0630471
0.0610882
-0.00788613
0.00886806
-0.0016808
0.0231678
0.0243292
0.126251
0.117164
0.140998
0.148417
0.183506
0.184416
0.185855
0.18696
0.63377
0.655992
0.663786
0.63756
-3.90299
-6.72815
-0.275514
-0.132153
0.00186565
0.00302327
0.00127825
0.00374852
0.00387731
0.00142638
0.038565
0.037167
0.029783
0.0341104
0.330398
0.336381
0.746561
0.79058
0.674324
0.67601
0.190214
0.192735
0.197697
0.193376
0.0242688
0.0224922
0.0256163
0.423135
0.440518
0.44278
-0.0579233
-0.146216
0.0234567
0.0503978
0.318979
0.303075
0.322905
0.357903
0.396358
0.681112
0.699692
0.697844
0.706606
0.750538
0.766893
0.732329
0.153978
0.162831
0.158361
0.189867
0.185933
0.187276
0.182937
0.18519
0.182974
-0.369375
-0.753967
0.161807
0.15518
0.118398
0.12968
0.263047
0.333436
0.363517
0.371637
0.378272
-0.28341
-0.351844
0.177008
0.161804
0.0753532
0.104876
0.0892204
0.605066
0.565539
0.615543
0.588748
0.550428
0.575617
-0.704413
-2.23884
-1.33597
0.234376
0.0380122
0.130278
0.0544307
0.0409716
0.0468227
0.710343
0.73301
0.406682
0.551139
0.523754
0.439121
0.470093
0.52325
0.447998
0.482544
0.51913
0.500282
0.158066
0.174202
0.139764
0.404081
0.471784
-0.171406
-0.21822
-0.278954
0.105003
0.137974
0.125625
0.649806
0.544427
0.631324
0.201734
0.202163
0.0116908
0.02017
0.206082
0.206291
0.00693185
0.00859017
0.109412
-1.18292
-0.179432
0.194208
0.185267
0.201578
-0.20208
0.3149
0.0148984
0.0826988
0.0582534
0.19301
0.143242
0.10813
0.00697844
0.0199616
0.0144627
-0.479835
0.199378
0.197436
0.201212
0.202305
0.203038
0.00863742
0.010295
0.00652179
0.0118286
0.0109442
0.00952079
0.168919
0.181308
-0.492345
0.201308
0.203426
0.203325
0.196713
0.201899
0.199898
0.0159096
0.0109583
0.0105978
-0.0729318
0.0435033
0.368187
0.482042
0.314174
0.0898129
-0.152629
0.264438
0.333844
0.229698
0.399759
0.365285
0.393113
-0.122594
-0.269233
-0.110292
-0.163731
0.191933
0.190862
0.183879
0.180859
0.197056
0.195418
0.199302
0.196812
0.199232
0.200348
-0.119328
-0.0869651
-0.256054
-0.316864
0.318212
0.413641
0.206739
0.241691
0.134192
0.020199
0.0212824
0.0164806
0.0145562
0.0508477
0.0619596
0.0776505
0.0625966
0.0494317
0.0440762
0.0517622
0.0576838
0.0613485
0.187631
0.186169
0.191959
0.198953
0.150865
0.154276
0.125437
0.142148
0.132008
0.0760515
0.106721
0.0864083
0.00837268
0.00856341
0.00697671
0.0237644
0.0277776
0.0144567
0.0119574
0.0134103
0.0107027
0.0106473
0.0177975
0.0211119
-0.496474
-0.580354
0.63329
0.604249
-0.583644
0.188007
0.194295
0.191245
0.196349
0.199384
0.199922
0.197799
0.195095
0.182211
0.184561
0.180227
0.181076
-0.431017
-0.569991
-0.396247
-0.461463
-0.193271
0.307107
0.0551765
-0.00492735
-0.00820695
0.20213
0.566746
0.381175
0.434525
0.456937
-0.679885
-0.279457
-0.610955
0.00210024
-0.167401
0.367521
0.421891
0.446272
0.3911
0.338534
-0.445979
0.188579
-0.370757
-0.339193
-0.150971
-0.239215
0.411599
0.349596
0.356112
0.379802
0.403433
0.354719
0.336578
0.3344
0.371946
0.376518
0.166634
-0.0362227
-0.0845428
-0.118696
0.332277
0.211111
0.266316
0.184696
0.186792
0.18935
0.188586
0.172958
0.178763
0.174417
0.180586
0.182425
0.192905
0.192305
0.188201
0.190846
-0.0535516
-0.0365189
-0.226487
-0.465434
-0.329911
-0.436221
-0.323341
-0.143893
-0.0618549
-0.340521
0.0512872
-0.33225
-0.57858
-0.431782
-0.64031
-0.315676
-0.452442
0.0852879
0.145308
0.15071
0.141481
0.19645
0.18315
0.036566
0.0429876
0.023025
0.0258796
0.0824504
0.103185
0.105658
0.0437992
0.0471516
0.0231348
0.0234231
0.0507813
0.0301703
0.0399375
0.0547036
0.0204526
0.0235612
0.0278429
0.0336216
0.0373933
0.0388719
0.181208
0.183742
0.182511
0.195253
0.206238
0.219996
0.190328
0.167354
0.159818
0.163435
0.141401
0.148497
0.14715
0.155971
0.1739
0.179751
0.178712
0.180504
0.167717
0.168662
0.155766
0.159764
0.142494
0.125306
0.113904
0.0175879
0.01151
0.0149297
0.015209
0.0109099
0.0126599
0.0407621
0.0317509
0.0357373
0.0320307
0.0371259
0.0171109
0.0176724
-0.571066
-0.610908
-0.530594
-0.568901
-0.620851
0.562769
0.639088
0.486201
0.273166
0.256097
0.484728
0.598894
0.372476
0.435373
0.487149
0.152965
0.407023
0.193746
0.193407
0.190558
0.190265
0.19166
-0.335626
-0.238081
-0.234298
-0.185266
-0.0680521
0.0358772
0.0526073
-0.136742
0.00258814
0.0422074
0.301483
0.317642
0.262913
0.287498
0.285747
0.116703
0.190924
0.236907
0.201071
0.240493
0.259752
0.223193
0.251904
0.203937
0.164592
0.164741
0.112985
0.128035
0.108874
0.0941049
0.18388
0.163948
0.173288
0.165735
0.184512
0.21444
0.206414
0.229832
0.245683
0.173488
0.134804
0.143822
0.172418
0.132828
0.144697
0.159448
-0.150226
-0.258344
-0.180665
-0.454253
-0.347
-0.36161
-0.405466
-0.393038
-0.117047
-0.800684
-0.754813
-1.391
0.122372
0.601856
0.366234
0.331343
0.39964
0.37353
0.372765
0.408854
0.416576
0.324767
0.340742
0.344346
0.297495
0.323025
0.350605
0.348435
0.166171
0.0588582
0.048464
0.0171402
-0.109263
-0.0795702
0.13386
0.0566038
-0.0203842
-0.0123937
0.151037
0.0492366
0.106629
0.144327
0.0771311
0.035543
0.224688
0.292315
0.284759
0.254902
0.176715
0.1902
0.213211
0.245158
0.273655
0.312005
0.181397
0.184769
0.186611
0.185562
0.18089
0.184073
0.184015
0.186214
0.186481
0.189454
0.188647
0.0119319
0.0119539
-0.0130366
-3.1281e-05
-0.0562948
-0.088136
-0.0839199
-0.123552
0.0206919
0.00905343
-0.0372304
-0.0255087
-0.0111744
0.00182525
0.0809457
0.0897979
0.0405966
-0.00327463
-0.0960538
0.194017
0.169878
0.0440569
-0.0503732
0.0392568
0.152149
0.062204
0.0758747
0.0679768
0.0795894
0.0741985
0.0324631
0.0269623
0.0292954
0.0399089
0.0365595
0.0247532
0.0224981
0.0244481
0.0251332
0.0244505
0.0241212
0.167565
0.163283
0.165375
0.159666
0.15845
0.170609
0.173531
0.175017
0.179648
0.181279
0.173238
0.17715
0.180838
0.0271435
0.0211529
0.0232503
0.0232952
0.0219645
0.0195267
0.0200387
-0.20794
-0.551909
-0.617409
-0.436612
-0.512489
-0.487303
0.162305
0.0955
0.158415
0.278403
0.181785
0.086212
0.139879
0.238613
-0.0100888
0.107124
-0.0287306
0.512133
0.373569
0.515633
0.145174
-0.121127
0.0139584
0.0678815
-0.122676
-0.0558532
-0.0124567
-0.124548
-0.0938468
-0.0685016
0.0266692
-0.0862293
-0.1197
-0.323778
-0.116111
-0.0495399
-0.0681305
0.0505858
0.103824
-0.0237106
-0.169646
-0.209987
0.28995
0.310325
0.32621
0.299959
0.319831
0.248867
0.238443
0.256968
0.267295
0.261878
-1.12725
-0.841246
-1.77628
-1.08515
-0.646966
0.153374
0.103153
0.393816
0.294942
0.374497
0.357498
0.323613
0.289895
0.29153
0.328652
0.0444961
0.150847
0.126374
0.130334
0.0366796
-0.0252184
0.257367
0.253227
0.291566
0.315815
0.284184
0.317705
0.177602
0.17718
0.179357
0.175778
0.17179
0.173713
0.0568596
0.0504107
0.0133796
-0.00981475
-0.00666268
0.0197993
0.0303819
0.026974
0.025265
0.025139
0.0284564
0.0321298
-0.139645
-0.245891
-0.365567
-0.287373
-0.343661
-0.447062
-0.446201
-0.367409
-0.236827
-0.258121
-0.00773537
0.252296
0.0612518
0.22371
-0.0877773
0.0558618
0.159788
0.11936
0.15475
0.0477407
0.142368
-0.171267
-0.652475
-0.564324
0.416202
0.437448
0.220349
0.0254586
-0.192932
0.0107857
0.200837
0.145334
0.184986
0.250816
0.249743
-0.36946
-0.294907
-0.0888419
0.14033
-0.180765
-0.172098
-0.193088
-0.00769707
-0.076594
)
;

boundaryField
{
    wall-4
    {
        type            zeroGradient;
    }
    velocity-inlet-5
    {
        type            zeroGradient;
    }
    velocity-inlet-6
    {
        type            zeroGradient;
    }
    pressure-outlet-7
    {
        type            fixedValue;
        value           uniform 0;
    }
    wall-8
    {
        type            zeroGradient;
    }
    frontAndBackPlanes
    {
        type            empty;
    }
}


// ************************************************************************* //
