/*--------------------------------*- C++ -*----------------------------------*\
| =========                 |                                                 |
| \\      /  F ield         | OpenFOAM: The Open Source CFD Toolbox           |
|  \\    /   O peration     | Version:  2412                                  |
|   \\  /    A nd           | Website:  www.openfoam.com                      |
|    \\/     M anipulation  |                                                 |
\*---------------------------------------------------------------------------*/
FoamFile
{
    version     2.0;
    format      ascii;
    arch        "LSB;label=32;scalar=64";
    class       surfaceScalarField;
    location    "14";
    object      phi;
}
// * * * * * * * * * * * * * * * * * * * * * * * * * * * * * * * * * * * * * //

dimensions      [0 3 -1 0 0 0 0];

oriented        oriented;

internalField   nonuniform List<scalar> 
1300
(
3.75095
5.62643
-6.18578
3.75095
-6.01922
5.62643
-4.50085
4.50085
-1.44106
1.44106
1.877
1.87395
-4.13494
4.13494
-4.69226
4.69226
-2.80069
2.80069
-5.24649
5.24649
-5.06847
5.06847
4.68623
-4.68623
-4.8953
4.8953
-1.85888
1.85888
-3.78443
3.78443
3.17479
-3.17479
-5.02608
5.02608
-0.505524
0.505524
-0.554124
4.30508
3.19683
3.19683
-2.52153
2.52153
-4.85184
4.85184
6.21842
-6.21842
9.39221
-9.39221
-3.20643
-3.39923
1.34386
-8.1258
-4.67536
-4.67536
-8.44044
8.44044
-2.81401
2.81242
2.92752
-2.92752
-1.70024
1.70024
-4.49157
-0.00928881
-4.49157
4.4808
0.0200587
4.4808
-1.56245
0.121385
-1.56245
4.09156
-4.09156
1.27452
0.16654
1.27452
3.06707
-3.06707
-1.87719
3.75419
1.87376
-1.87234
6.17741
-1.87862
3.75257
-5.02412
5.02412
-3.88843
-0.246511
-3.88843
4.37314
-0.2382
4.37314
-5.23324
5.23324
-4.65539
-0.0368653
-4.65539
4.7519
-0.0596452
4.7519
3.01948
-3.01948
-2.83286
0.0321695
-2.83286
2.75075
0.0499419
2.75075
0.35362
5.27281
-5.98005
8.79247
-5.27281
0.0263253
5.20861
0.037879
5.20861
-5.10618
0.0377088
-5.10618
5.00904
0.0594233
5.00904
4.78118
-0.094949
4.78118
-4.79883
0.112604
-4.79883
-3.32187
-3.38855
-4.9932
0.0979034
-4.9932
-1.91376
0.0548817
-1.91376
1.81564
0.0432357
1.81564
-3.49066
3.49066
-4.08472
0.300284
-4.08472
3.13004
0.0447472
3.13004
1.86844
1.88251
5.6194
-5.6194
2.44461
-4.97623
-0.0498467
-4.97623
-5.08017
-4.31205
5.08017
-0.0540931
-0.811535
0.306012
-0.811535
3.15787
0.0389623
3.15787
2.67883
0.0719218
-2.67883
0.157302
3.41925
-3.41925
1.87533
0.6462
1.87533
-5.57081
5.57081
4.94891
0.0601297
-4.94891
0.0970774
6.1575
0.0609182
6.1575
-6.19954
-0.0188824
-6.19954
3.37719
-6.77641
-3.40379
4.7897
0.105602
-4.7897
0.114339
2.92753
-1.71663e-05
2.92753
-2.89885
2.89885
-2.96497
0.0374558
-2.96497
-2.13888
0.438642
-2.13888
1.3662
0.334044
1.3662
-4.3901
-0.101465
-4.3901
-4.31882
0.234104
4.31882
0.161977
0.848599
-0.848599
-1.67468
0.112231
-1.67468
-4.23465
-0.155455
4.23465
-0.143081
-3.97989
-0.111675
-3.97989
-3.01685
0.0518822
3.01685
0.0502164
3.11401
0.0438617
-3.11401
0.0469347
-1.87113
3.75364
-1.87982
3.75358
-4.78731
-0.236813
-4.78731
5.17662
-0.152499
5.17662
3.71775
0.0666784
-3.71775
-0.170675
4.51556
-0.142419
4.51556
-5.26956
0.0363231
-5.26956
5.21085
0.0223867
5.21085
4.60318
-0.0876244
-4.60318
-0.0522087
4.82822
-0.0763205
4.82822
3.07199
-0.0525043
3.07199
-2.98461
-0.034869
-2.98461
2.85696
-2.85696
2.85218
0.00478137
-2.85218
0.0193213
-11.1327
11.1139
-0.0351616
-11.0976
5.17344
5.17344
4.20644
0.574735
4.20644
-5.0091
0.210273
-5.0091
3.32637
-6.73016
3.3906
-6.71247
3.37541
-11.5012
3.33697
-6.72552
5.15199
-5.15199
5.08027
0.0717261
-5.08027
0.0870662
-1.9413
0.0275364
-1.9413
-2.95712
-0.533534
-2.95712
3.95611
-0.465458
3.95611
-3.02599
3.02599
-3.08072
0.0547318
3.08072
0.0493167
4.90712
-0.0788951
-4.90712
-0.0691123
1.05999
0.214532
-1.05999
0.248457
3.61014
-0.190888
3.61014
-3.24879
-0.170459
-3.24879
-1.89701
-0.0442891
1.89701
-0.0216817
-5.81855
0.247737
-5.81855
-11.1906
0.0930451
-11.1527
-6.10649
-6.10649
2.33395
11.1264
-2.95022
-0.0343967
2.95022
-0.0226833
2.96367
0.0623217
-2.96367
0.0648223
-2.86374
0.00677445
2.86374
0.0351106
-2.54651
0.407627
-2.54651
-0.974905
0.974905
-1.13126
0.156358
1.13126
0.234932
1.10174
-0.253139
1.10174
1.74538
0.0702618
-1.74538
0.0707006
-3.87788
-0.102012
-3.87788
5.26548
-0.0888603
5.26548
-3.13627
-0.112526
3.13627
-0.0642813
-0.033246
11.1471
-5.1402
0.0340225
5.1402
-11.208
11.242
-3.23989
0.693387
3.23989
0.966546
5.29561
0.275204
-5.29561
0.286506
5.19499
0.015858
-5.19499
0.0429975
-2.45594
-0.501179
-2.45594
-4.42144
-0.365872
4.42144
-0.465324
-11.4761
-0.201996
11.6781
-11.4167
6.02055
0.136954
-6.02055
11.379
-0.841147
-0.00745242
0.841147
0.133758
1.44994
-0.348205
1.44994
3.77499
-0.164846
-3.77499
-0.10289
-5.2879
0.0183438
5.2879
-0.0224203
-1.92204
-0.533901
1.92204
-0.472099
-4.2665
4.30546
1.91092
-3.35798
-3.41843
-7.67003
1.85149
1.90216
4.29609
-7.10394
-4.39727
-6.9896
7.27508
-6.98858
-9.30461
9.20966
7.44148
-7.55316
-5.77481
5.82413
6.474
-6.42378
1.88003
1.87417
8.31084
-8.55735
-12.7187
12.4819
10.0658
-10.1027
11.1811
-11.1448
-12.6402
12.6561
-5.74962
5.78179
-6.61259
6.57772
-6.79168
6.7274
-3.28755
-3.42492
9.17058
-9.07267
11.7388
-11.7886
-7.03442
7.3347
3.38505
0.920415
3.42891
-1.88123
3.76125
-1.87134
3.78225
3.39928
-6.68683
3.33088
-6.74931
6.07959
5.6592
-6.0255
-1.64453
-5.85279
5.85278
-5.84102
5.87613
8.91076
-8.92005
-1.88504
3.75921
-1.86854
3.7707
-3.4205
-2.35431
3.37576
0.920339
5.61919
3.55139
-5.72479
-1.26481
-7.64052
7.47568
-7.93508
7.76462
-0.459055
5.82875
-5.3697
4.39278
-1.55484
7.38359
5.72024
5.93051
5.86831
-5.5931
1.12027
-6.48997
-6.39289
-2.70853
2.82076
2.66353
-2.49699
5.86858
1.5729
5.7255
-5.44045
-2.11271
-5.54246
3.81403
2.0101
3.86876
4.03315
2.44085
4.08503
3.03087
-3.03685
0.00597517
-3.05909
6.08996
0.722364
-5.4134
-4.49306
6.01962
2.29122
5.78142
-5.06482
-3.49253
-5.23549
-7.99695
-4.72178
-8.36283
7.69679
4.78513
7.54429
-8.5946
8.57218
6.73064
3.33516
6.67099
-6.53169
-3.57097
-6.5839
10.574
-2.44728
-8.12677
-7.14813
-5.49207
7.12574
4.05536
7.66441
4.99164
7.70741
3.51191
7.06214
-7.56727
2.0752
-3.84492
-1.9047
-3.8256
3.74198
2.03981
3.79192
-4.12922
-2.48337
-4.16362
-4.19734
-2.59434
4.24985
2.32788
-4.31115
-3.62394
4.42367
2.30373
3.09735
-7.49462
3.62817
-7.05309
-6.39758
-2.67509
-6.31052
4.14887
2.6094
-6.75826
-2.53797
10.9318
-5.2726
9.28727
-7.27571
-4.51293
-7.34483
-6.22396
-0.810464
-5.98985
-8.93782
8.43664
-8.65584
8.19038
14.6927
-7.0546
-7.63815
-3.97065
-2.45313
3.92372
-0.494809
-3.71167
3.71765
0.0495796
3.83183
4.75225
4.25744
-3.88253
-1.95849
-3.81771
3.86445
2.01168
3.87123
6.65296
2.2578
6.67302
-6.4513
-2.46875
-6.55277
9.07182
-8.63318
2.91774
-2.96203
5.17872
2.5859
-4.98783
-2.65269
6.01492
-3.03971
-2.97521
-12.2388
10.5921
1.64669
-4.85518
-0.462397
0.0431263
-5.51417
-3.79044
5.40157
0.528944
11.121
7.33059
-5.51352
5.76126
6.16461
6.22474
-0.168154
5.8592
-5.16581
5.19268
-2.24621
-2.94647
5.26341
-5.41887
-1.28936
-5.27798
3.98862
0.306633
1.88805
-1.58204
-2.10065
-0.607877
-2.02995
1.60229
1.06124
1.81682
0.986125
1.83463
-2.95725
0.540975
2.41628
-1.97113
-1.95602
-3.58534
-0.907408
4.49275
5.46498
2.01069
-5.36209
-0.180369
2.74768
-2.70444
-0.864648
-2.72069
1.93662
-2.80127
-3.47532
-1.77316
5.24848
-3.37077
-0.446938
3.30845
0.560312
-3.76081
-2.09198
3.72335
0.361678
-3.1319
6.24467
-3.11277
-5.09039
2.53255
3.55741
4.54265
-4.80262
2.4416
2.36102
-1.24521
5.43719
0.344229
5.29477
-7.0308
3.53827
4.93476
2.39994
-5.00144
-0.234051
-7.26485
11.0399
-7.89307
-3.14679
7.12848
3.91138
7.12506
7.56769
-6.40036
13.5254
1.02363
-8.9167
6.24122
-3.84128
4.31332
-8.1546
-11.881
2.96432
-8.12438
8.99397
-0.869581
-2.41099
-6.1836
10.5354
-1.27183
-9.26355
6.27246
-5.58488
-5.18203
10.7669
-8.03216
8.753
-2.96399
-5.78902
-7.13059
-4.01419
7.11224
1.45993
-9.97948
12.0547
-2.91734
5.88086
0.790126
5.80454
4.3379
-6.02496
1.68706
3.69426
-6.65825
3.51225
-9.53721
-4.95297
9.65174
-4.69877
-7.62806
-6.84449
-0.783572
2.02926
10.0254
-7.0209
5.37587
1.64503
3.34746
0.52377
-3.35224
-0.473357
0.352776
4.44509
-4.79786
4.1447
4.21662
3.37298
1.07211
3.81479
2.03799
-3.79211
-0.371513
-4.02868
1.43434
-1.70081
-3.55788
4.99222
-3.97609
0.418217
-2.65052
-3.50053
6.15104
-4.55522
3.09156
3.15311
5.10324
-4.86346
1.36293
-2.40795
-2.45551
2.61316
-4.31397
1.90236
3.08986
4.20609
0.582152
4.91697
4.73476
-7.52637
0.473285
8.28615
-7.02134
1.73284
5.97457
-7.10871
0.264218
-6.0463
1.09011
-6.36272
-5.66815
5.02568
-5.83614
-3.12893
5.86909
0.803934
-6.03107
0.0412127
-5.97278
-2.96503
-6.50668
-2.64527
-6.01057
-9.04563
-1.89253
-7.1531
6.5441
-5.96322
-2.39961
6.42855
1.76184
-7.21293
7.20548
-7.44592
7.09772
0.0937633
3.62389
4.3512
1.89807
-2.37868
4.27675
-5.01375
7.27155
-8.51137
3.49761
4.03347
-6.50221
-4.4779
4.95889
4.11292
5.29294
8.83881
-10.6614
1.82263
-10.7314
12.3851
-1.65364
-16.5105
5.77904
-7.67166
2.66233
0.25541
2.68987
0.678303
2.36967
-3.04798
-2.28373
-2.30541
-2.26871
-3.26871
5.53742
1.16691
-3.31301
2.1461
-3.41101
4.57792
-0.108063
-3.20495
5.15556
-2.78588
5.41097
-3.51907
1.8919
3.22903
5.47366
-2.24462
4.17278
-1.58688
1.74862
-3.99324
-1.52009
-2.97539
5.0152
-3.17565
3.59387
-0.217337
3.81121
-4.00658
0.966869
-0.633602
3.58302
3.74032
4.10017
-3.02806
2.86828
-4.45516
-1.12496
-3.873
-0.783145
-0.578023
-3.62515
4.20317
5.97164
-6.54966
-5.38226
9.64349
-4.26123
7.74861
-5.45584
-2.29277
-4.27811
-4.35506
3.87049
1.98871
9.73732
0.188685
-5.64453
-4.97713
-4.01058
3.16632
2.02636
-2.06126
3.70795
2.01813
-0.130085
0.64082
1.176
1.89853
-1.25771
0.157574
1.74095
-1.42446
2.03384
0.713833
-2.10411
0.0741575
-1.42577
3.36239
0.990507
-2.05175
0.79404
1.11043
-3.35664
4.6607
-2.29243
-2.36828
5.77113
1.21529
-3.50772
4.06269
-3.75606
2.2763
-3.18371
-1.23142
-4.98748
-3.41458
-2.44369
4.58979
-3.09373
5.10442
1.11446
-4.92405
6.03852
-3.45539
1.68223
-3.05474
3.76857
-1.12253
-1.93221
2.64283
2.60565
-2.78752
0.066825
-0.144685
2.22122
-2.36591
-0.580042
-2.55117
-4.54604
4.90771
-2.17157
4.61317
2.10519
-1.92665
6.53982
1.82427
-3.75093
-3.26611
-3.71305
-1.38991
3.15274
-1.13246
-5.45144
-6.92148
5.53906
-0.24429
-7.73744
9.96753
-2.2301
-5.44622
1.90795
5.22053
-7.82982
1.17157
-4.31757
5.64997
5.9942
5.74991
-10.1041
0.840501
-5.31892
2.66447
-7.98339
6.57586
-5.2809
8.24522
-10.0064
7.60675
-8.24452
5.09842
-2.88497
5.5925
-3.90544
2.53427
-6.54846
-5.08852
6.9994
-3.66424
7.78952
-4.18533
11.9749
-7.10268
7.01414
4.96072
-1.46792
-5.87691
-6.86288
5.39496
0.151258
5.9558
4.93661
-2.89862
4.56509
2.23224
-4.64019
-2.08172
-6.49727
1.85707
-3.34416
-1.88706
3.74414
3.21618
3.73995
1.28863
-3.26659
6.77422
-7.5578
-2.07546
-3.59269
6.77899
-1.38402
4.09665
-7.68934
-2.26606
5.27645
-0.0331801
-5.24327
1.77814
-4.90707
0.761792
-5.66886
5.07435
-5.03313
2.16124
-9.8329
-5.0517
-4.91794
-2.32074
-5.12519
-7.6062
5.28547
-1.82716
5.37833
-8.62756
8.59438
-3.7575
9.04297
-5.37413
-1.13256
5.84622
1.25149
10.2945
0.112933
-4.59083
-1.83303
3.85597
-2.02294
1.33329
-3.51222
0.343754
2.47988
3.29126
-6.4685
-0.0337073
-4.62454
-3.84753
7.96045
5.79597
11.7676
1.10616
9.20951
-1.24906
10.3157
4.04388
4.27881
-2.94437
4.76701
1.2588
4.75642
-0.857754
2.74965
1.83211
1.887
0.817444
2.28494
1.45538
3.25181
0.20383
-2.10158
4.67515
-8.68573
-0.969377
-8.111
1.09867
5.74451
-4.64585
3.08488
-1.05852
1.06194
0.242872
-1.83153
1.58866
-2.7036
-1.96162
-0.220666
-1.51003
2.30407
1.85236
-2.08341
-0.620194
0.257665
-3.67224
2.92604
-2.85922
-0.253567
5.78495
-2.69715
0.331242
-1.01492
-2.21993
-2.82781
2.75365
6.25539
0.284436
3.14261
5.19215
3.10017
0.201545
5.77394
-6.64352
-3.76327
-5.80302
0.772836
5.99336
2.12208
7.90334
7.08279
5.69877
-1.99058
-9.54837
7.3798
-2.6128
5.72617
-0.482894
-5.18597
4.78724
2.48431
-5.59118
0.558042
-4.62793
-7.24073
-0.223826
8.81821
-10.0706
8.93808
5.97304
1.18006
-4.24985
-0.668085
4.09349
0.185316
10.501
-1.12193
-6.92283
8.04476
-4.62259
3.65321
0.914129
2.79382
2.50279
1.44427
-5.47856
-10.1244
-1.76087
-1.59577
-4.12915
0.363603
-2.21596
6.30318
-2.64997
4.01041
5.39479
6.45673
-2.27311
-4.27655
6.53434
-2.52393
3.93279
)
;

boundaryField
{
    wall-4
    {
        type            calculated;
        value           uniform 0;
    }
    velocity-inlet-5
    {
        type            calculated;
        value           uniform -3.75095;
    }
    velocity-inlet-6
    {
        type            calculated;
        value           uniform -5.62643;
    }
    pressure-outlet-7
    {
        type            calculated;
        value           nonuniform List<scalar> 8(6.18578 6.01922 6.60566 6.78194 6.71042 6.78097 6.71697 6.71238);
    }
    wall-8
    {
        type            calculated;
        value           uniform 0;
    }
    frontAndBackPlanes
    {
        type            empty;
    }
}


// ************************************************************************* //
