/*--------------------------------*- C++ -*----------------------------------*\
| =========                 |                                                 |
| \\      /  F ield         | OpenFOAM: The Open Source CFD Toolbox           |
|  \\    /   O peration     | Version:  2412                                  |
|   \\  /    A nd           | Website:  www.openfoam.com                      |
|    \\/     M anipulation  |                                                 |
\*---------------------------------------------------------------------------*/
FoamFile
{
    version     2.0;
    format      ascii;
    arch        "LSB;label=32;scalar=64";
    class       volVectorField;
    location    "14";
    object      U;
}
// * * * * * * * * * * * * * * * * * * * * * * * * * * * * * * * * * * * * * //

dimensions      [0 1 -1 0 0 0 0];

internalField   nonuniform List<vector> 
918
(
(0.985249 -0.000416695 0)
(0.00499558 2.96626 0)
(-0.00429298 1.64053 0)
(0.979774 0.00205724 0)
(0.000409368 1.60299 1.51933e-21)
(-0.00702195 2.94878 -1.85175e-18)
(0.851456 1.18637 7.37135e-19)
(0.492487 0.233849 -8.95254e-21)
(0.999945 -0.000418521 0)
(0.00509778 1.21073 0)
(-0.00443454 1.3584 0)
(0.82268 -0.00547301 0)
(0.0110708 2.93037 0)
(0.00136997 2.79482 0)
(-0.0173686 3.16941 1.09591e-18)
(-0.00383484 1.51751 -1.64194e-20)
(0.589029 0.103994 5.56326e-19)
(0.168966 1.19783 6.15751e-19)
(0.964925 0.00530305 0)
(-0.00051046 1.48361 0)
(0.168539 0.27312 -4.71088e-19)
(1.0014 -0.00526222 0)
(1.0002 -0.00988513 0)
(0.975561 -0.00659865 0)
(0.739896 -0.0242052 0)
(0.0175736 2.63045 0)
(-0.0152239 2.9102 6.38076e-19)
(-0.0115116 1.66738 0)
(-0.0115507 1.76451 0)
(-0.0106979 1.66393 0)
(0.00187725 1.80739 0)
(0.00122448 1.61875 -1.20268e-21)
(-0.00306459 1.52616 0)
(-0.020636 2.98757 -6.46894e-23)
(-0.0167181 3.00532 1.43968e-18)
(0.00210746 3.00024 0)
(0.869416 -0.00603882 0)
(0.373868 0.90384 -4.00231e-20)
(0.842578 1.20367 -1.03636e-18)
(0.988839 1.05707 9.73118e-19)
(0.70631 1.29264 -1.71072e-19)
(0.701206 1.27267 9.83182e-19)
(0.522857 0.30481 8.73505e-21)
(0.516016 0.206939 0)
(1.1927 0.573342 0)
(0.486555 0.321007 4.07449e-20)
(0.450616 0.229257 -4.22801e-20)
(0.919967 -0.00691225 0)
(1.00047 -1.03101e-05 0)
(0.999955 0.000367408 0)
(1.00392 -0.00769718 0)
(1.00073 -0.000896124 0)
(1.00012 8.28554e-05 0)
(0.0471949 1.56875 -5.23694e-19)
(-0.0233072 1.29379 0)
(0.00219941 1.13359 0)
(-0.0257107 1.38078 0)
(0.00113058 1.27204 0)
(-0.00245157 1.56986 0)
(-0.00534276 1.51564 0)
(0.0027923 1.35498 0)
(-0.0142178 1.54058 0)
(-0.00825789 1.37731 0)
(0.898065 -0.000931838 0)
(0.901515 0.00796263 0)
(0.8367 0.00104923 0)
(0.893472 0.012042 0)
(0.809575 -0.00770988 0)
(0.0147186 3.00038 6.77524e-19)
(0.0115604 3.00772 0)
(0.00617032 3.00292 0)
(0.0135474 2.99727 7.54792e-24)
(0.00801986 2.95847 -1.00697e-18)
(0.0144968 2.98217 0)
(0.0107573 2.90366 0)
(0.0250516 2.93054 1.34578e-24)
(0.00410663 2.82505 0)
(0.0314246 2.91544 0)
(-0.00680611 2.74366 0)
(0.311656 3.57017 0)
(-0.132506 3.65217 0)
(0.141622 3.26036 1.01991e-18)
(-0.0109357 2.99238 0)
(-0.00898948 1.78895 0)
(-0.00369068 1.64349 1.61978e-20)
(-0.00454999 1.53174 -2.54785e-20)
(0.651814 0.166099 -1.91427e-19)
(0.612702 0.0699279 -1.84873e-19)
(0.617866 0.195021 -5.72186e-19)
(0.572967 0.131684 -3.82352e-19)
(0.267998 1.04619 0)
(0.239456 1.27018 -6.15407e-19)
(0.328068 1.26446 1.01829e-18)
(0.988394 0.00861623 0)
(0.944241 0.00704084 0)
(1.00033 0.000594406 0)
(1.00277 0.00939282 0)
(1.00251 0.0085045 -1.04941e-18)
(0.992007 0.00980479 7.9256e-19)
(-0.00993954 1.59642 0)
(-0.00616981 1.47365 0)
(-0.0156037 1.67658 0)
(-0.0122384 1.6243 0)
(0.000584947 1.5026 0)
(0.246131 0.283743 1.45369e-19)
(0.28729 0.266263 0)
(0.993321 -0.00856771 0)
(0.953945 -0.00671096 0)
(0.869092 0.0176154 0)
(0.835338 0.0340129 0)
(0.787554 -0.00960295 0)
(1.0224 -0.00555028 0)
(0.783144 0.0408026 0)
(0.657466 -0.0173469 7.46537e-19)
(-0.0354321 2.8661 3.17164e-19)
(0.0438359 2.90729 0)
(0.0572634 2.88282 0)
(-0.00615917 2.69627 0)
(-0.0130434 2.98539 5.85014e-19)
(-0.0183193 2.89569 0)
(-0.015328 2.98815 -1.8538e-18)
(-0.0135326 2.92528 6.40487e-19)
(-0.00834141 1.81342 0)
(-0.00655197 1.80815 0)
(-0.00124056 1.64491 -3.20771e-22)
(-0.00206714 1.6191 0)
(-0.00630756 1.51681 0)
(0.932161 -0.00197524 0)
(0.865976 -0.00103413 0)
(0.85662 0.0073971 0)
(0.938673 -0.00337883 0)
(0.881668 -0.00496167 0)
(0.48617 1.10285 3.9765e-20)
(0.540793 1.16669 0)
(0.334757 0.831291 2.32593e-21)
(0.278173 0.694126 0)
(0.957258 1.08574 -2.81245e-19)
(1.07187 0.898456 5.79962e-19)
(0.403802 1.3355 0)
(0.582569 1.34078 0)
(0.529641 1.28494 0)
(0.101239 0.110732 -1.0444e-19)
(0.555396 0.279123 0)
(0.542345 0.183317 1.10247e-19)
(1.04347 0.945678 0)
(1.11368 0.791983 0)
(1.13999 0.738799 -5.08081e-19)
(1.17142 0.631135 0)
(1.22313 0.414568 6.08016e-20)
(0.951686 -0.00667487 0)
(0.960841 -0.00956875 0)
(0.899696 -0.00775937 0)
(0.984067 -0.00885551 0)
(0.975752 -0.00823558 0)
(0.938143 -0.00609826 0)
(1.00009 0.00225245 0)
(1.00079 0.00142196 0)
(0.999924 0.000785306 0)
(0.0482231 1.72978 2.83594e-19)
(0.0836899 1.52502 0)
(0.0247449 1.7555 2.18206e-19)
(0.0282574 1.59532 -3.90678e-19)
(0.0714756 1.20181 -5.08904e-19)
(-0.0285795 1.21193 0)
(0.0856687 1.11158 0)
(-0.0119719 1.44777 0)
(0.00704144 1.30884 0)
(-0.00812071 1.69174 -1.14781e-21)
(-0.00722738 1.59264 0)
(-0.00246321 1.68344 -5.40628e-20)
(-6.75922e-05 1.57025 -3.74646e-21)
(-0.00879393 1.48589 0)
(-0.0048216 1.51034 0)
(0.00408255 1.33532 0)
(-0.0168296 1.55937 0)
(-0.0117757 1.40475 0)
(0.969391 0.0141041 0)
(0.917228 0.00430262 0)
(0.952899 0.0080038 0)
(0.888875 0.00164876 0)
(0.838908 -0.0059005 0)
(0.920434 -0.000289205 0)
(0.913399 0.00709912 0)
(0.837411 -0.00227529 0)
(0.00605791 3.06482 -5.93739e-21)
(0.0163536 3.05818 0)
(0.014783 2.96922 0)
(0.0085905 2.87638 0)
(0.929169 3.99034 0)
(1.24428 3.31865 1.01698e-18)
(0.0717233 3.08432 0)
(-0.0259596 2.9123 0)
(-0.0102945 1.79327 0)
(-0.0113998 1.7891 0)
(-0.0097245 1.79065 0)
(-0.00337566 1.79676 4.66692e-21)
(-0.0100474 1.79133 0)
(-0.00409687 1.79005 0)
(-0.00346244 1.54854 1.66261e-21)
(-0.00526941 1.67028 3.29519e-20)
(-0.00500265 1.65836 2.60258e-20)
(-0.00377155 1.53687 0)
(0.684465 0.127621 2.80362e-19)
(0.642253 0.0371478 -2.72805e-19)
(0.190411 1.38507 0)
(0.294303 0.806383 -2.4976e-19)
(0.153195 1.47836 -7.53017e-19)
(0.218378 1.22753 7.51047e-19)
(0.900812 0.0101472 0)
(0.967667 0.0132672 0)
(0.976257 0.0122654 0)
(0.924755 0.00956362 0)
(-0.0174973 1.57607 0)
(-0.0149855 1.58864 0)
(-0.0110008 1.43803 0)
(0.442077 0.339235 3.74152e-19)
(0.362255 0.317551 -4.5426e-19)
(0.380851 0.243696 0)
(1.13859 0.0832812 -3.83318e-21)
(1.12319 0.0385352 0)
(1.056 0.0327521 0)
(0.97101 0.0043787 0)
(0.699227 0.0817932 0)
(0.723072 0.0589115 -1.20062e-18)
(0.644338 0.0116281 4.59133e-19)
(0.0100377 2.98261 4.08587e-19)
(-0.0317386 2.86838 4.91219e-20)
(0.00390619 3.05006 -1.28408e-20)
(0.0198686 3.0437 4.63024e-19)
(-0.0150734 2.9965 2.13108e-20)
(-0.0129645 2.94939 -8.63962e-23)
(-0.0172819 3.01208 -4.04897e-19)
(0.01464 3.02444 2.9205e-19)
(0.00716232 3.03654 -4.56107e-19)
(0.947583 0.00779728 0)
(0.940984 0.00449366 0)
(0.87321 0.00261691 0)
(0.954869 0.0125546 0)
(0.939131 0.0136684 0)
(0.877648 0.00837454 0)
(0.921131 -1.40556e-05 0)
(0.921516 0.00750485 0)
(0.840935 -0.00167967 0)
(0.701495 1.40226 3.34608e-19)
(0.741993 1.51731 0)
(0.218788 0.38734 2.38569e-20)
(0.177155 0.52728 1.74434e-19)
(0.252126 0.645155 -8.97641e-20)
(0.209862 0.539058 1.62865e-19)
(0.290344 0.643674 6.00117e-19)
(0.120707 0.139483 1.86687e-19)
(0.599771 0.226259 -3.94696e-19)
(0.575546 0.246759 1.01157e-19)
(0.551997 0.158853 2.10103e-19)
(1.2107 0.469812 2.9985e-19)
(1.22666 0.261725 3.14322e-19)
(0.0110907 1.75548 1.80707e-19)
(0.0162493 1.61352 0)
(1.01 0.0248662 0)
(0.982244 0.0151969 0)
(0.9387 -0.00221757 0)
(0.0108577 3.07444 0)
(0.0199614 2.94416 7.90483e-19)
(0.0165743 2.95641 0)
(0.00615872 2.85083 -7.8399e-19)
(0.00613942 3.09162 1.87126e-19)
(0.00745734 3.08263 0)
(0.777688 1.82605 -2.39338e-19)
(1.2504 2.51413 6.58427e-19)
(0.762838 1.96898 -1.4963e-18)
(0.0212412 2.98465 -2.94455e-19)
(0.0374424 3.00828 0)
(-0.0315631 2.88296 0)
(-0.000506741 1.6651 -5.97075e-21)
(-0.00368699 1.67499 -3.87838e-21)
(-0.0010174 1.56188 -5.81796e-21)
(0.277739 1.283 7.14627e-19)
(0.253538 0.563354 -4.88925e-19)
(0.0662596 1.66698 4.85819e-19)
(0.0997827 1.57795 -6.00233e-19)
(0.121559 1.40269 7.86653e-20)
(0.00351504 3.11789 -1.10057e-18)
(0.0177496 3.11788 1.17652e-18)
(-0.00862036 2.98103 5.05724e-19)
(-0.00249101 2.97783 -4.45458e-19)
(-0.0215468 2.88263 -5.15063e-19)
(0.00891218 3.0987 -1.36973e-18)
(0.0021709 3.10665 1.33061e-18)
(0.186425 0.563725 0)
(0.117712 0.52535 -3.82541e-19)
(0.154292 0.204371 1.62308e-19)
(0.330106 0.787638 5.75021e-19)
(0.186151 0.19616 -8.79917e-19)
(1.22058 0.170837 -5.79864e-20)
(1.22402 0.31279 0)
(1.20787 0.118918 1.23669e-19)
(-0.00764728 1.72619 -1.46203e-21)
(-0.00186685 1.74062 0)
(0.000847577 1.60234 0)
(0.361727 1.17218 -2.31472e-19)
(0.384683 1.0088 -5.04407e-19)
(0.183679 0.323029 8.50322e-19)
(1.00566 -0.0111192 0)
(1.00776 -0.00792888 1.91327e-19)
(-0.00807011 1.8025 0)
(-0.0145197 1.81029 0)
(1.00255 0.00373767 1.9097e-21)
(1.00284 0.00893866 3.93537e-19)
(-0.00422948 1.80114 -6.24249e-21)
(-0.00446194 1.80015 0)
(0.0401589 3.18432 9.99729e-20)
(0.400614 3.50493 0)
(1.09951 0.644466 6.53992e-20)
(1.01208 0.012601 -2.5535e-21)
(1.01904 -0.0180408 0)
(1.00171 0.000327334 5.07714e-23)
(-0.14866 1.47221 0)
(-0.0131445 2.09717 0)
(-0.0212785 1.77085 0)
(-0.0345527 1.85939 7.1254e-20)
(-0.00722273 1.82993 4.31658e-20)
(1.00364 0.0105805 2.28858e-21)
(1.04582 0.0126112 0)
(1.07248 0.0229754 0)
(-0.0124059 1.7895 0)
(-0.0086607 1.81129 0)
(-0.0198941 1.7946 0)
(0.245276 1.18486 -4.2888e-19)
(1.01114 -0.00986715 0)
(1.00993 -0.0138303 0)
(1.00244 0.00074859 2.41655e-19)
(1.00603 -0.00526384 -2.88106e-19)
(1.00091 -0.00075225 0)
(-0.0136233 1.78882 0)
(-0.010898 1.79519 0)
(-0.0103027 1.79422 0)
(-0.0171606 1.79783 0)
(-0.0123 1.79452 0)
(-0.0155556 1.79762 0)
(1.02342 0.00369771 0)
(1.02309 0.0106518 -1.0494e-21)
(0.796791 1.25177 5.28239e-19)
(1.00264 0.000418828 -2.42559e-19)
(1.00346 0.00558409 2.92609e-19)
(1.00121 0.00197606 0)
(1.01054 0.00982104 2.37063e-19)
(1.008 0.00833245 -2.93952e-19)
(1.00762 0.0142837 0)
(-0.00754755 1.8115 0)
(-0.00626231 1.80685 1.36367e-20)
(-0.00647065 1.80649 -9.39817e-21)
(1.18098 0.258087 -7.45604e-20)
(1.11876 0.0794933 0)
(0.0568253 3.07905 -5.03416e-19)
(0.069549 2.85098 -4.08652e-20)
(0.14785 3.20034 7.66993e-19)
(0.142559 3.22878 5.16705e-21)
(0.140398 3.24414 0)
(0.0222113 3.13864 1.0797e-19)
(0.0813797 3.16363 4.91446e-19)
(0.0748019 3.19076 -2.09203e-19)
(0.0262038 3.12857 0)
(0.708979 0.332012 0)
(0.619951 0.393648 0)
(1.08093 0.672594 -2.52233e-19)
(1.07343 0.807086 -9.28587e-20)
(1.13206 0.56074 0)
(1.16432 0.50895 0)
(1.01546 0.0133985 -4.39783e-19)
(1.01384 0.0147406 -1.80746e-21)
(1.01953 -0.0200033 0)
(1.01413 -0.0216381 0)
(1.00723 0.00265892 0)
(1.01021 0.00305366 0)
(1.00392 0.00265206 0)
(1.00979 0.00705125 0)
(1.00698 0.00568344 0)
(1.00569 0.00490985 0)
(-0.137981 1.4906 0)
(-0.112811 1.54556 0)
(-0.156057 1.42392 0)
(-0.0722736 1.36308 0)
(-0.0452337 2.15212 0)
(0.0582831 2.15427 -3.06998e-19)
(-0.0125338 2.09129 0)
(-0.00999845 2.02185 1.55244e-19)
(-0.027931 1.92929 -1.38966e-19)
(-0.0207142 1.77215 0)
(-0.018032 1.77451 0)
(-0.0316041 1.7592 0)
(-0.0247746 1.72869 0)
(-0.0563369 1.82856 -4.34353e-20)
(-0.0175429 1.83779 5.91814e-20)
(-0.0329173 1.85781 7.16378e-20)
(-0.0166511 1.84595 0)
(-0.00747052 1.83071 -9.35766e-20)
(-0.00723952 1.82589 -5.14853e-20)
(-0.0502023 1.82304 3.37716e-20)
(-0.0295139 1.83183 -7.72068e-20)
(-0.0337642 1.84289 -9.32279e-20)
(1.01093 0.0164647 4.32057e-19)
(1.01034 0.00377994 2.72428e-21)
(1.00549 0.0202647 -4.50734e-19)
(0.992748 0.0156935 5.6962e-19)
(1.03946 0.017995 0)
(1.03979 0.0115136 0)
(1.06093 0.0415859 0)
(1.04743 0.0230612 0)
(1.05813 0.0125725 0)
(1.10361 0.0725493 0)
(1.07964 0.0467092 0)
(1.09155 0.0368692 0)
(-0.00967211 1.80193 -1.61795e-21)
(-0.0122486 1.79159 0)
(-0.0109596 1.7944 0)
(-0.00895907 1.81484 1.49371e-20)
(-0.00920446 1.81502 -6.82565e-22)
(-0.0162632 1.78809 1.50603e-20)
(-0.0156166 1.7899 -1.53866e-20)
(-0.0180691 1.79433 0)
(-0.0146246 1.79494 0)
(-0.0145545 1.79529 0)
(-0.0206299 1.79328 0)
(-0.022082 1.79096 0)
(0.424162 1.24101 8.99038e-19)
(0.397463 1.35627 3.29166e-19)
(0.581675 2.43449 -1.76316e-19)
(0.280791 2.3756 4.55855e-19)
(0.431942 2.39153 -1.69745e-19)
(1.01965 -0.0116851 0)
(1.01605 -0.00895145 0)
(1.01608 -0.0163052 0)
(1.0084 -0.00117296 0)
(1.00454 -0.00143331 0)
(1.00703 -0.0047992 0)
(1.01036 -0.00349475 0)
(1.01286 -0.00518557 0)
(1.02305 0.0123437 4.23658e-19)
(1.01514 0.0201986 -5.37221e-19)
(1.02497 0.00580588 -4.23477e-19)
(1.02136 0.00369873 5.31981e-19)
(0.758688 1.27495 0)
(0.668331 1.35516 6.34405e-19)
(0.874678 1.18321 3.73113e-19)
(0.90719 1.16324 -4.95769e-19)
(1.1199 2.61373 -5.73352e-19)
(0.828719 0.0974363 2.87173e-19)
(1.12046 0.093077 0)
(1.15999 0.170041 6.62573e-20)
(1.15427 0.1494 2.82044e-21)
(0.96947 0.125585 0)
(0.148099 2.97167 1.05822e-19)
(0.128455 2.87802 -6.34931e-19)
(0.0427591 2.3493 4.69877e-19)
(0.116908 0.132524 -1.93048e-19)
(0.345984 3.43254 -4.49274e-19)
(0.19943 3.32349 0)
(0.239878 3.36827 5.85095e-19)
(0.258554 3.04186 -6.75118e-19)
(0.34831 3.19926 0)
(0.00659691 3.12079 2.5784e-20)
(0.0176195 3.12966 -3.32139e-19)
(0.0152803 3.12543 4.8886e-19)
(0.0381276 3.14033 0)
(0.0370386 3.15196 0)
(1.20496 2.61911 0)
(0.507064 0.835208 -2.1966e-19)
(1.0134 0.979521 -2.07713e-19)
(0.961921 1.06083 0)
(0.805835 0.957928 6.30596e-20)
(1.03706 0.869212 3.20958e-20)
(0.405541 0.477944 -5.28483e-19)
(0.73308 0.323886 -2.25165e-20)
(0.720649 0.282342 2.19263e-19)
(0.619524 0.429834 1.75174e-20)
(0.560094 0.423035 -7.21114e-19)
(0.709909 0.359978 0)
(0.699364 0.435004 3.64017e-19)
(0.708989 0.429721 0)
(0.663051 0.412786 0)
(0.675009 0.350098 0)
(0.733699 0.602033 1.26958e-19)
(1.17298 0.270012 -5.59666e-20)
(1.17419 0.405395 0)
(1.18779 0.367808 0)
(0.775258 0.212303 3.26414e-19)
(0.777666 0.529973 -1.82191e-19)
(0.691801 0.510302 -2.93186e-19)
(0.891099 0.398098 -2.72776e-19)
(1.01824 0.018262 2.89754e-19)
(1.01746 0.0140934 -2.95371e-19)
(1.01307 0.0196438 0)
(1.02138 -0.00170151 0)
(1.01891 -0.0164534 -2.65619e-19)
(1.00773 -0.0169102 2.6291e-19)
(1.03526 0.00515686 0)
(1.03011 0.00807724 0)
(1.01187 0.00380003 0)
(1.01481 0.00843849 0)
(1.01937 0.00264425 0)
(1.0149 0.000810853 0)
(-0.0990233 1.59382 0)
(-0.06757 1.62875 0)
(-0.247255 1.40419 1.89552e-19)
(0.189325 1.25097 2.3979e-19)
(-0.0541524 1.30736 4.71248e-19)
(0.090806 1.23074 -2.06194e-19)
(-0.168471 1.40099 0)
(-0.335952 1.97257 2.53772e-19)
(-0.328221 1.94284 0)
(0.21892 2.44491 2.49817e-19)
(0.0729896 2.52989 2.38916e-19)
(-0.334242 1.93643 -2.23549e-19)
(0.0964531 1.18614 2.70787e-19)
(-0.161672 1.36653 2.1231e-19)
(0.113832 1.195 7.42448e-19)
(-0.170449 1.95271 -3.18796e-19)
(-0.0113007 2.00468 -5.27597e-19)
(-0.103375 1.89226 -3.13034e-20)
(-0.0267898 1.94732 0)
(-0.0929664 1.94679 1.30149e-19)
(-0.0903683 1.9128 0)
(-0.0147584 2.00104 -1.6596e-19)
(-0.0139476 1.97669 0)
(-0.0500443 1.79271 -3.2419e-20)
(-0.0638262 1.80542 0)
(-0.0664 1.76393 0)
(-0.0551966 1.77816 3.65374e-20)
(-0.0394481 1.87251 -4.22345e-21)
(-0.032823 1.91504 1.63609e-19)
(-0.0323274 1.89659 1.12958e-21)
(-0.0268834 1.81326 2.88547e-20)
(-0.034014 1.80895 -1.86697e-20)
(-0.0218527 1.77772 0)
(-0.0229111 1.77825 0)
(-0.103075 1.84726 7.3655e-20)
(-0.0949434 1.76858 4.75016e-20)
(-0.0923294 1.80881 -6.82497e-20)
(-0.142078 1.86515 0)
(-0.0137265 1.80586 -5.04309e-20)
(-0.0129271 1.8143 2.35397e-20)
(-0.0133336 1.81332 -7.72486e-21)
(-0.0217905 1.81325 -3.50849e-20)
(-0.014506 1.8187 -1.21173e-20)
(-0.0150417 1.82434 6.23741e-20)
(1.02201 0.00283081 -2.83212e-19)
(1.01729 0.00965046 2.86971e-19)
(1.0173 0.0026539 0)
(0.997184 0.0455148 4.02515e-19)
(0.992403 0.0323144 -4.78678e-19)
(0.964803 0.0241518 5.54194e-19)
(0.992512 0.0815598 -5.34085e-20)
(1.025 0.00888744 0)
(1.03191 0.0116869 2.43825e-19)
(1.02948 0.00826585 -2.3899e-19)
(1.03342 0.0405107 -1.32606e-20)
(1.03666 0.0263321 1.16806e-19)
(1.02754 0.0523724 0)
(1.02297 0.0432429 -4.38899e-20)
(1.01956 0.022087 0)
(1.01861 0.0206171 0)
(1.03604 0.0060864 0)
(1.02948 0.00475711 0)
(1.02672 0.0227388 9.04899e-20)
(1.02891 0.0163947 -2.03198e-19)
(1.02787 0.0289348 -9.17149e-20)
(1.02761 0.029581 -1.06923e-19)
(1.02519 0.0528647 1.9182e-19)
(1.06208 0.0492407 0)
(1.05307 0.0891919 0)
(-0.0138627 1.80595 -2.08731e-20)
(-0.0132243 1.79569 -1.85705e-21)
(-0.0147075 1.79454 0)
(-0.00968671 1.80788 2.2164e-20)
(-0.0095318 1.80303 3.32394e-21)
(-0.00936565 1.80631 -3.64005e-21)
(-0.00882979 1.82407 4.56946e-20)
(-0.0135375 1.8172 -2.7027e-21)
(-0.0137363 1.81715 1.42903e-20)
(-0.00984994 1.8194 -2.33522e-20)
(-0.00968134 1.82007 -2.83984e-21)
(-0.0184527 1.78998 3.80605e-22)
(-0.0180837 1.79032 2.33867e-20)
(0.45161 1.14597 -4.96091e-19)
(0.458551 1.32965 -7.59173e-19)
(0.64971 1.36314 -6.1351e-19)
(0.536425 1.37103 -3.15748e-19)
(0.530035 1.40013 0)
(0.620724 2.40147 1.2141e-19)
(0.670961 2.40895 2.205e-19)
(0.294034 2.46769 9.17489e-20)
(0.26494 2.62266 -1.8465e-19)
(0.365377 2.59575 1.93615e-19)
(0.511642 2.4663 0)
(0.486141 2.40225 -3.74952e-19)
(0.0270449 2.27499 7.84017e-19)
(0.183915 2.39073 -5.64464e-20)
(0.171651 2.26635 -1.02913e-18)
(0.911379 2.33727 1.65532e-19)
(0.838497 2.36874 0)
(1.01043 -0.000830822 9.58008e-21)
(1.01343 -0.00572946 -7.8938e-21)
(1.01559 -0.00736653 -1.42751e-19)
(1.01408 -0.00791461 1.43183e-19)
(1.0131 -0.00120214 0)
(0.656373 1.2665 0)
(0.650581 1.17454 0)
(0.75505 1.05505 0)
(0.635329 1.12057 0)
(1.15363 2.63239 5.30539e-20)
(1.02748 2.3457 0)
(0.773528 2.22947 -7.07371e-22)
(0.876715 2.47109 0)
(0.929014 2.54625 -2.29349e-20)
(0.929078 2.50621 0)
(0.834003 0.137494 0)
(0.800645 0.159574 8.27773e-20)
(0.90303 0.120379 4.22744e-19)
(0.860003 0.108381 -1.70714e-19)
(0.857354 0.0710856 -5.08079e-19)
(1.02073 0.216668 -2.40841e-19)
(0.955165 0.259977 -1.56947e-20)
(0.894811 0.254152 3.72927e-19)
(0.965252 0.206097 2.84367e-19)
(0.926144 0.163121 -5.2898e-19)
(0.893286 0.175123 6.80152e-20)
(0.914552 0.236171 -1.33065e-19)
(0.896111 0.195536 0)
(0.970025 0.16547 -2.53137e-19)
(0.999924 0.166924 0)
(0.99645 0.198577 0)
(1.05095 0.0950857 8.12478e-20)
(1.01691 0.152412 -1.23917e-20)
(1.0123 0.215777 -1.25297e-19)
(1.04554 0.182853 0)
(1.01185 0.0242805 2.17376e-19)
(1.018 0.0434423 2.56671e-19)
(1.01751 0.027934 -2.15614e-19)
(1.01055 0.0479699 -1.72789e-19)
(1.00018 0.0488183 -2.84761e-19)
(0.974344 0.128021 0)
(0.986871 0.080342 0)
(0.966223 0.0474376 -2.01041e-19)
(0.929485 0.0553902 8.32226e-20)
(0.996081 0.0782596 2.44058e-19)
(1.01516 0.094628 -2.46403e-19)
(1.02408 0.123644 2.24355e-19)
(0.996861 0.119417 0)
(1.02686 0.085024 0)
(1.01463 0.0717773 -1.0419e-19)
(1.01167 0.0745469 -1.96577e-19)
(0.530801 1.08966 -1.05851e-19)
(0.597855 1.55159 1.98734e-19)
(1.13056 2.79428 1.50672e-19)
(1.21624 3.11246 -7.64975e-20)
(1.22359 2.74368 5.84957e-19)
(1.26356 2.72569 -3.48651e-19)
(1.18162 2.34285 -3.55969e-21)
(1.19895 3.0182 2.26949e-19)
(1.21033 2.98408 -2.71128e-19)
(1.21024 3.262 -2.75069e-19)
(1.37064 2.99088 3.81339e-19)
(1.36659 2.90133 0)
(0.510364 0.843924 -1.01683e-20)
(0.15534 1.29906 3.5436e-19)
(0.514733 0.550262 3.50001e-19)
(0.336392 0.320267 3.78842e-19)
(0.555915 0.453808 4.03301e-19)
(0.540089 0.501167 -6.36191e-19)
(0.54192 0.528607 5.20476e-19)
(0.514664 0.483017 -2.09047e-19)
(0.47959 0.435375 4.83729e-19)
(0.776461 0.256192 5.60836e-19)
(0.745274 0.298333 0)
(0.742885 0.255263 1.15184e-20)
(0.683281 0.52363 1.86516e-19)
(0.664856 0.489401 -6.89363e-19)
(0.600946 0.504322 1.98271e-20)
(0.621527 0.481422 0)
(0.629089 0.72979 1.385e-19)
(0.773403 0.774738 4.82717e-20)
(0.705422 0.846479 -6.48054e-20)
(0.813183 0.800258 -1.62022e-20)
(0.868592 0.833496 1.59552e-20)
(0.874776 0.842912 -1.63265e-20)
(0.781812 0.623372 -2.18884e-19)
(0.86623 0.683206 1.50513e-20)
(0.928925 0.694065 0)
(0.919858 0.668115 -1.36925e-20)
(0.974992 0.295943 6.07449e-20)
(1.06806 0.275725 7.49413e-21)
(1.00591 0.255273 9.8241e-20)
(0.949598 0.327828 -1.40611e-19)
(0.98657 0.397211 0)
(1.05167 0.384205 0)
(0.880315 0.325871 5.54713e-21)
(0.840069 0.272427 0)
(0.838369 0.25141 1.96073e-19)
(0.88983 0.257168 -5.33874e-21)
(0.880261 0.401314 7.46624e-19)
(0.825343 0.466192 1.91777e-19)
(0.833613 0.430819 -2.42137e-19)
(0.776992 0.418849 -2.60106e-19)
(0.761156 0.420926 1.80227e-19)
(0.756375 0.415077 -1.76299e-19)
(1.02513 -0.008443 2.26225e-19)
(1.02725 -0.00787454 0)
(1.0253 -0.010622 1.53692e-19)
(1.0236 -0.0135528 -2.52699e-21)
(1.03516 0.000481533 1.66712e-19)
(1.02889 0.00937877 -3.52193e-19)
(1.02721 0.0131096 0)
(1.02129 0.0139772 -7.33923e-20)
(1.02267 0.00654909 1.831e-19)
(1.01785 0.0116807 -9.31253e-20)
(1.02125 0.0136207 6.93704e-20)
(-0.0440054 1.72124 0)
(-0.076416 1.75219 0)
(-0.0590637 1.67042 0)
(-0.0378878 1.68313 0)
(-0.22107 1.68474 -1.29642e-19)
(-0.216763 1.56158 2.94062e-20)
(-0.293888 1.93141 1.88553e-20)
(-0.373018 1.70138 -1.39799e-19)
(-0.128211 1.77081 -2.64571e-20)
(-0.143343 1.76503 1.77993e-20)
(-0.179604 1.67462 1.82867e-20)
(-0.155611 1.68973 -5.08015e-20)
(-0.109772 1.71373 3.61519e-21)
(-0.101706 1.73559 2.13563e-21)
(-0.124716 2.0187 -1.36739e-19)
(-0.133286 2.08109 0)
(-0.255265 2.11781 3.12614e-20)
(-0.298541 1.97148 8.87308e-21)
(-0.209595 2.2868 2.78884e-20)
(-0.107109 2.41083 0)
(-0.0774064 2.44784 -1.73243e-19)
(-0.0186417 2.50895 1.23262e-19)
(-0.241677 2.21788 1.61929e-20)
(-0.250311 2.17837 -3.42072e-20)
(-0.176721 2.28147 0)
(-0.0811052 1.83607 -9.83878e-20)
(-0.0672553 1.83996 -1.45567e-19)
(-0.0692747 1.83304 0)
(-0.0736529 1.87506 -4.82498e-21)
(-0.0909637 1.8721 5.30245e-20)
(-0.0267206 1.79023 5.52564e-21)
(-0.0226636 1.78977 -8.3995e-20)
(-0.0262493 1.7943 1.74118e-20)
(-0.0303783 1.79599 3.51187e-20)
(-0.0364182 1.7976 0)
(-0.0257639 1.79399 0)
(-0.0252988 1.78746 2.57397e-20)
(-0.0259246 1.79137 -8.19886e-21)
(-0.0261909 1.79226 0)
(-0.024749 1.78207 1.9314e-20)
(-0.0236443 1.78338 -3.8024e-20)
(1.0301 0.0181808 0)
(1.03192 0.0176134 -2.18599e-20)
(1.03221 0.0174259 -1.63651e-19)
(1.03083 0.0186277 0)
(1.03065 0.0207935 0)
(1.03443 0.0109551 -5.00582e-21)
(1.03451 0.0103514 2.70429e-19)
(1.03022 0.00898615 3.3342e-19)
(1.02938 0.00607063 0)
(1.02342 0.00482551 0)
(1.02702 0.0154787 1.66258e-19)
(1.02193 0.0125785 0)
(1.02302 0.00966514 0)
(-0.0166861 1.80744 0)
(-0.0187754 1.79078 1.90859e-21)
(-0.018134 1.79891 1.19448e-20)
(-0.0255422 1.79251 0)
(-0.0212779 1.79318 1.57113e-20)
(-0.0203031 1.79218 -7.65596e-21)
(-0.0230253 1.79125 0)
(0.644 1.69886 0)
(0.537886 1.32477 1.1308e-18)
(0.478995 1.76589 0)
(0.62745 1.2214 -5.83177e-19)
(0.554342 1.25866 0)
(0.580418 1.22085 5.16829e-19)
(1.01502 2.67864 -3.86496e-21)
(0.93844 2.35553 -2.20799e-19)
(0.848797 2.0664 3.45549e-19)
(0.847305 2.35424 9.46554e-20)
(0.893245 2.49782 0)
(0.920995 2.48747 0)
(0.888213 2.33778 0)
(0.888466 2.30223 -3.71408e-19)
(0.757473 2.51384 1.00641e-20)
(0.882717 2.47058 -1.11657e-20)
(0.879818 2.45215 8.46848e-21)
(0.711144 2.38177 0)
(0.80367 2.37121 0)
(0.763234 2.39193 -2.09973e-19)
(0.852811 2.50754 0)
(0.590821 1.08134 0)
(0.480181 0.905822 4.30454e-20)
(0.528654 0.939489 1.75572e-21)
(0.491413 1.03055 0)
(0.50899 0.980878 -6.57402e-20)
(0.723223 0.868491 1.88085e-20)
(0.764535 0.990496 0)
(0.741785 0.969669 -7.30977e-20)
(0.635 1.001 0)
(0.616242 0.919502 0)
(1.13412 2.79719 6.54477e-20)
(1.11224 2.86529 1.24129e-19)
(0.882706 2.40553 -2.86487e-19)
(0.852368 2.38303 2.74776e-20)
(1.09507 2.75409 0)
(1.05249 2.71784 -3.6312e-20)
(1.0525 2.47486 -5.55236e-20)
(0.930708 2.18538 -2.43968e-20)
(0.483047 1.43271 0)
(0.459227 1.09617 9.31591e-20)
(0.551024 1.19826 0)
(0.835918 0.217979 0)
(0.808295 0.18108 0)
(0.772495 0.193653 0)
(0.830489 0.218866 -3.11195e-19)
(0.786005 0.219999 1.91265e-19)
(0.930678 0.0530248 -1.65356e-19)
(0.938372 0.10171 0)
(0.923049 0.103842 7.88303e-20)
(0.885565 0.0777031 3.23313e-19)
(0.886614 0.0578513 -1.99278e-19)
(1.16376 3.38275 -9.93297e-19)
(1.20896 3.3045 0)
(1.16582 3.40621 -1.94901e-18)
(0.65585 3.56615 1.67534e-18)
(0.883784 3.12443 3.95132e-19)
(0.494955 0.861025 2.01972e-19)
(0.442764 0.838501 0)
(0.344767 0.568305 -7.9303e-20)
(0.406141 0.687205 -3.56411e-19)
(0.510622 0.546438 -1.08339e-19)
(0.496322 0.566581 1.22318e-19)
(0.619497 0.542634 2.61289e-19)
(0.63556 0.554847 0)
(0.586935 0.628591 0)
(0.552849 0.565516 0)
(0.912236 0.581031 -5.3395e-20)
(0.832048 0.518041 -1.85214e-19)
(0.859398 0.558824 8.68825e-20)
(0.89972 0.493734 -1.33575e-19)
(1.00655 0.463181 0)
(1.01304 0.547024 -5.42213e-21)
(0.821494 0.364536 -3.90645e-19)
(0.828604 0.351272 5.83204e-19)
(0.810547 0.367582 3.05941e-19)
(0.803994 0.333117 -3.48246e-19)
(0.832366 0.295864 -2.60148e-19)
(0.803785 0.298105 3.18295e-19)
(1.03815 0.00185897 -1.74447e-19)
(1.03949 0.00281386 3.54598e-19)
(1.02717 -0.00190354 2.17067e-19)
(1.03295 0.00270564 -2.58756e-19)
(1.03195 0.0151303 0)
(1.03528 0.0115115 -4.26315e-19)
(-0.146604 1.86707 3.04609e-20)
(-0.163132 1.86308 0)
(-0.227434 1.93383 1.65371e-20)
(-0.254475 1.96235 -1.71515e-21)
(-0.278648 1.91504 -3.42185e-20)
(-0.238707 1.90213 0)
(-0.0193608 1.81008 0)
(-0.0248479 1.79925 -8.75029e-21)
(-0.0243055 1.79488 7.8057e-21)
(-0.0230892 1.79536 1.98964e-21)
(-0.0196125 1.80694 -1.56509e-20)
(-0.0178434 1.80936 -2.50499e-20)
(0.587968 1.42444 3.87559e-19)
(0.625097 1.47167 4.51689e-19)
(0.630593 1.2745 4.98413e-19)
(0.754579 1.4133 -2.65312e-20)
(0.644637 1.28117 0)
(0.613984 1.30598 5.61702e-19)
(0.615607 1.33076 -5.54357e-19)
(0.606204 1.24056 -4.877e-19)
(0.637384 1.26452 0)
(0.592056 1.26489 0)
(0.799165 2.52044 -1.51773e-20)
(0.759292 2.52303 3.92651e-19)
(0.819421 2.53865 -2.66496e-19)
(0.719171 2.54616 -1.08871e-19)
(0.590899 2.71269 -5.07151e-21)
(0.472359 2.74677 -1.18397e-19)
(0.951393 2.31152 -1.92797e-19)
(0.982854 2.35668 0)
(0.86108 2.07434 -2.06551e-19)
(1.02838 2.69871 0)
(1.01209 2.67105 0)
(0.632795 2.28471 2.74506e-19)
(1.04257 3.18075 5.03388e-19)
(0.920764 3.04666 -4.57141e-19)
(0.29148 0.975699 0)
(0.346596 0.850697 -1.45051e-19)
(0.497006 0.778265 -4.83904e-19)
(0.429928 2.05476 0)
(0.471623 2.7882 -2.74919e-19)
(0.441995 2.5575 0)
(0.633741 0.687269 -2.8749e-19)
(0.709956 0.674276 3.74427e-19)
(0.735245 0.619369 2.6808e-19)
(0.60588 0.644525 4.39422e-20)
(0.669554 0.596443 -1.82386e-19)
(1.00921 2.79741 -3.82512e-19)
(1.02713 2.85569 3.34022e-19)
(0.673105 2.2252 -2.69633e-20)
(0.593962 1.7315 -1.42387e-20)
(0.710398 1.95493 1.94382e-19)
(0.985328 2.50094 -3.69843e-20)
(0.985894 2.52026 -2.23619e-19)
(0.693294 1.89984 -9.75707e-21)
(0.454849 1.35279 -2.1507e-19)
)
;

boundaryField
{
    wall-4
    {
        type            noSlip;
    }
    velocity-inlet-5
    {
        type            fixedValue;
        value           uniform (1 0 0);
    }
    velocity-inlet-6
    {
        type            fixedValue;
        value           uniform (0 3 0);
    }
    pressure-outlet-7
    {
        type            zeroGradient;
    }
    wall-8
    {
        type            noSlip;
    }
    frontAndBackPlanes
    {
        type            empty;
    }
}


// ************************************************************************* //
