/*--------------------------------*- C++ -*----------------------------------*\
| =========                 |                                                 |
| \\      /  F ield         | OpenFOAM: The Open Source CFD Toolbox           |
|  \\    /   O peration     | Version:  2412                                  |
|   \\  /    A nd           | Website:  www.openfoam.com                      |
|    \\/     M anipulation  |                                                 |
\*---------------------------------------------------------------------------*/
FoamFile
{
    version     2.0;
    format      ascii;
    arch        "LSB;label=32;scalar=64";
    class       volVectorField;
    location    "6";
    object      U;
}
// * * * * * * * * * * * * * * * * * * * * * * * * * * * * * * * * * * * * * //

dimensions      [0 1 -1 0 0 0 0];

internalField   nonuniform List<vector> 
38
(
(0.16955 0.405593 -2.31955e-19)
(0.290757 0.767845 2.73142e-19)
(0.295659 0.871382 0)
(0.378011 0.543876 -3.27894e-20)
(0.144089 0.13284 0)
(0.473662 1.1729 4.35883e-19)
(0.565234 1.34635 0)
(0.314527 0.358728 5.46683e-20)
(0.517672 0.672568 2.19006e-19)
(0.468069 0.567305 1.45211e-20)
(0.170169 0.147254 -9.25569e-20)
(0.508801 0.987415 0)
(0.541303 0.818097 -1.13867e-18)
(0.450453 0.61851 5.21807e-19)
(0.810289 2.46662 -1.05511e-18)
(0.963721 2.60143 0)
(0.771123 1.46779 8.13599e-19)
(0.8248 2.41858 1.84231e-19)
(0.832218 2.09297 0)
(0.460708 2.3737 4.83227e-21)
(0.582969 2.06334 0)
(0.93794 2.74102 1.20268e-18)
(1.01809 2.76226 -4.57505e-19)
(0.870635 2.13825 4.95958e-21)
(0.782417 1.81918 -1.76621e-20)
(0.785106 1.45994 -9.76626e-19)
(0.856959 1.44743 9.40828e-19)
(0.752996 2.65889 1.29876e-19)
(0.395366 2.56405 -8.08883e-20)
(0.802086 2.3342 0)
(0.792599 2.24119 1.05058e-19)
(0.841571 2.03174 8.57792e-20)
(0.880182 1.77457 3.74034e-21)
(0.867171 1.53142 -5.14971e-19)
(0.880602 1.69599 0)
(0.904776 1.5339 -2.36974e-19)
(0.813181 2.04941 0)
(0.811154 1.96036 0)
)
;

boundaryField
{
    wall-4
    {
        type            noSlip;
    }
    velocity-inlet-5
    {
        type            fixedValue;
        value           nonuniform List<vector> 0();
    }
    velocity-inlet-6
    {
        type            fixedValue;
        value           nonuniform List<vector> 0();
    }
    pressure-outlet-7
    {
        type            zeroGradient;
    }
    wall-8
    {
        type            noSlip;
    }
    frontAndBackPlanes
    {
        type            empty;
    }
    procBoundary18to19
    {
        type            processor;
        value           nonuniform List<vector> 4((0.932006 3.13947 -5.75715e-19) (0.938388 3.19029 4.43282e-19) (0.72616 2.93386 -1.27093e-20) (0.434348 2.75996 -1.10342e-19));
    }
    procBoundary18to20
    {
        type            processor;
        value           nonuniform List<vector> 3((0.605205 1.70945 -2.12235e-19) (0.605205 1.70945 -2.12235e-19) (1.22736 3.11244 4.71634e-19));
    }
    procBoundary18to21
    {
        type            processor;
        value           uniform (0.236537 2.02699 0);
    }
    procBoundary18to23
    {
        type            processor;
        value           nonuniform List<vector> 3((0.485845 0.821456 -3.4115e-19) (0.743097 1.46469 0) (0.61735 1.93296 -5.82389e-19));
    }
}


// ************************************************************************* //
