/*--------------------------------*- C++ -*----------------------------------*\
| =========                 |                                                 |
| \\      /  F ield         | OpenFOAM: The Open Source CFD Toolbox           |
|  \\    /   O peration     | Version:  2412                                  |
|   \\  /    A nd           | Website:  www.openfoam.com                      |
|    \\/     M anipulation  |                                                 |
\*---------------------------------------------------------------------------*/
FoamFile
{
    version     2.0;
    format      ascii;
    arch        "LSB;label=32;scalar=64";
    class       volScalarField;
    location    "1";
    object      p;
}
// * * * * * * * * * * * * * * * * * * * * * * * * * * * * * * * * * * * * * //

dimensions      [0 2 -2 0 0 0 0];

internalField   nonuniform List<scalar> 
918
(
1.73211
0.757468
0.257146
1.73778
0.0288421
0.676002
-0.298607
1.24437
1.79568
0.245221
0.203715
1.46553
0.328805
0.237832
-0.335817
0.101045
1.47383
-0.427469
1.52955
0.12418
-0.000518768
1.8581
1.64303
1.48782
1.46354
-0.00563435
0.376656
0.0526404
-0.0812026
-0.0247777
0.0696503
0.12379
0.0502331
0.43582
0.604874
0.706931
1.48986
0.944294
-0.0785314
-0.103246
-0.18737
-0.419288
1.28276
1.31249
0.558235
1.19302
1.12785
1.53499
1.71584
1.8032
1.64787
1.71155
1.86213
0.55602
0.22382
0.164079
0.275722
0.256619
0.300751
0.221216
0.217474
0.237649
0.224356
1.39117
1.46452
1.46478
1.47971
1.46479
0.713266
0.726521
0.823263
0.233924
0.448077
0.319609
0.425415
0.222622
0.254523
0.251823
0.245451
-0.40534
-0.84729
-0.00239381
0.0427315
-0.00157311
0.116526
0.128042
1.47364
1.48238
1.44556
1.44091
0.991797
-0.271516
-0.481706
1.54734
1.55693
1.81304
1.66088
1.67131
1.549
0.134327
0.126997
0.100193
0.147492
0.135497
0.371616
0.6072
1.48687
1.54819
1.45402
1.47769
1.46974
1.18111
1.51942
1.50002
0.219496
0.313628
0.078901
0.173821
0.368709
0.329276
0.439158
0.428968
-0.0860172
-0.0068355
0.124503
0.0570088
0.112382
1.48579
1.46793
1.51102
1.49431
1.51724
0.841289
0.762915
1.0097
1.07734
0.159896
0.142933
-0.351207
-0.329795
-0.503984
1.19647
1.34411
1.37526
0.372494
0.553251
0.355322
0.664859
0.650203
1.51853
1.53784
1.51822
1.55509
1.55372
1.56626
1.72511
1.70012
1.82298
0.589555
0.66202
0.552757
0.492707
-0.0851337
0.0430662
-0.0850099
0.229755
0.269186
0.319264
0.338146
0.335619
0.298136
0.253645
0.243095
0.259097
0.182558
0.161795
1.38373
1.36806
1.40692
1.42323
1.4889
1.48128
1.47736
1.48921
0.441338
0.456749
0.405326
0.348371
-1.34534
-3.08589
0.0884345
0.141136
0.00440515
-0.00717249
-0.000430688
-0.0215511
-0.00392039
-0.0242373
0.222889
0.179336
0.139308
0.188944
1.48825
1.50819
0.989656
1.04506
0.907667
0.908164
1.55006
1.56594
1.56767
1.56493
0.159035
0.148839
0.163438
1.05681
0.833008
0.938966
1.14275
1.04733
1.23642
1.27875
1.5011
1.49362
1.51466
0.16751
0.231876
0.64067
0.360075
0.535363
0.454131
0.379073
0.468409
0.304267
1.43046
1.46179
1.4589
1.52043
1.52404
1.53311
1.49696
1.49852
1.49377
0.595516
0.376894
1.19067
1.14652
1.09416
1.15228
1.20184
1.20426
1.42058
1.38243
1.40681
0.830251
0.81934
0.427338
0.408354
1.3173
1.34764
1.33093
0.390288
0.281977
0.392125
0.364604
0.332547
0.402381
0.372139
-0.360025
0.0298202
0.210203
0.198687
0.186592
0.249728
0.280405
0.259513
1.03595
1.09102
0.696313
0.825256
0.795111
0.0600636
0.173697
0.286132
0.137971
0.205658
0.340434
0.270922
1.16757
1.16856
1.20722
1.13983
1.17209
1.00568
0.893939
0.88066
0.355526
0.377387
0.358423
1.07964
1.12068
1.11931
1.52213
1.52452
-0.0735956
0.0296831
1.62061
1.7176
-0.076753
-0.0110826
0.219057
0.208196
0.921681
1.57415
1.54273
1.58841
0.210154
0.466745
0.194857
0.236808
0.172217
1.43391
1.38942
1.31787
-0.0255922
0.102865
0.0909189
0.0378313
1.61893
1.57367
1.6382
1.6384
1.6212
0.0403724
-0.000834242
0.0448195
0.049237
0.128815
0.154552
1.5099
1.48002
0.202037
1.63065
1.62219
1.60153
1.62063
1.63763
1.58366
0.0746462
0.0870294
0.132302
1.1287
1.23003
0.243975
-0.0513298
0.356492
0.199551
0.0893513
0.227762
0.221587
0.232401
0.176492
1.32966
1.21686
1.01818
0.804366
1.01882
0.995781
1.57963
1.58504
1.56613
1.54701
1.6083
1.51386
1.65503
1.58442
1.60899
1.66267
0.270454
0.323556
0.298773
0.14709
0.554939
0.650421
0.468248
0.525954
0.301898
0.170274
0.226833
0.178694
0.232961
0.21801
0.288735
0.260203
0.341929
0.250985
0.288049
0.176766
0.372614
0.240018
1.40456
1.45607
1.43207
1.491
1.40729
1.4416
1.36991
1.39195
1.40368
1.29412
1.35345
1.33723
0.0346836
0.0835502
0.090079
0.125746
0.155369
0.0188785
0.0706002
0.0400129
0.0555956
0.0287138
0.0665311
0.0936651
0.127585
-0.0686094
0.945669
0.799382
0.39212
1.51876
1.59751
1.54422
1.6189
1.64478
1.6724
1.64407
1.58731
1.49383
1.5262
1.48861
1.5047
0.271436
0.159831
0.341822
0.370552
0.959351
1.47734
1.28059
1.19033
1.20337
1.33308
0.795788
0.539599
-0.15526
-0.49493
0.206034
0.114351
0.125481
0.424236
0.540526
0.165603
0.225833
0.329023
0.237002
0.234822
0.616579
1.26956
0.615058
0.59003
0.902083
0.824379
0.618258
1.34685
1.37205
1.17929
1.10519
1.29812
1.25577
1.26963
1.28341
1.29637
1.31459
1.15957
1.08577
1.03207
1.41878
1.30848
1.32352
1.26611
1.56567
1.59951
1.54428
1.523
1.57754
1.50769
1.52323
1.48046
1.52619
1.57354
1.5669
1.52061
0.33231
0.278746
0.331897
0.16602
0.285629
0.16168
0.316497
0.441301
0.326498
0.453896
0.658491
0.420702
0.2415
0.368365
0.301218
0.566274
0.469936
0.428303
0.34262
0.402991
0.412875
0.443088
0.412996
0.252745
0.264031
0.332879
0.198816
0.32367
0.299134
0.388338
0.202781
0.308175
0.211722
0.16534
0.234812
0.364613
0.275373
0.294133
0.100441
0.0915548
-0.0372055
0.0550235
0.321987
0.290687
1.49712
1.4629
1.47566
1.45171
1.51032
1.47348
1.36075
1.5234
1.5315
1.49391
1.40029
1.3713
1.36759
1.37946
1.41909
1.40436
1.52535
1.51044
1.42458
1.44437
1.35718
1.38825
1.34865
1.37563
1.37363
-0.0293598
0.116941
0.0409584
0.0572025
0.0970881
0.157907
0.249312
0.120579
0.233815
0.229677
0.190077
0.110694
0.148628
0.304076
0.412299
0.235799
0.0662104
-0.0165249
0.954284
1.0096
0.866159
0.768083
0.843804
0.913162
0.965952
0.733351
0.734595
0.825402
1.10898
1.06472
1.56437
1.54306
1.56013
1.59284
1.55906
0.454293
0.665697
0.694308
0.903675
0.977826
0.997362
0.847947
0.845753
0.893323
0.941604
1.45312
1.48283
1.45177
1.48979
1.48021
1.25039
1.35685
1.35427
1.49757
1.3859
1.38901
1.48371
1.43016
1.34231
1.34201
1.38043
1.35265
1.34418
1.32008
1.32204
1.41937
1.39173
1.41479
1.37981
1.42992
1.36112
1.45569
1.51332
1.46809
1.32269
1.32747
1.36373
1.36868
1.3471
1.35116
1.33256
0.861529
0.945788
0.86659
0.831284
0.886246
0.714817
0.688229
0.816887
0.836607
0.599123
0.509114
0.178309
1.20501
0.692073
0.519166
0.0747403
1.05534
1.12813
1.05982
0.887885
0.912556
1.39829
1.3916
1.41629
1.29044
1.24255
1.21134
1.21085
1.4133
1.16748
1.10044
1.16355
0.96902
1.05002
1.22497
1.16067
1.11174
1.14952
1.31451
1.18498
1.20105
1.29254
1.1752
1.19925
1.30081
1.35154
1.40302
1.35132
1.23269
1.28508
1.26318
1.29487
1.32969
1.31728
1.52705
1.51432
1.50304
1.53071
1.50871
1.52459
1.46779
1.54018
1.57175
1.56858
1.58106
0.18272
0.268541
0.300357
0.216646
0.293713
0.275527
0.349521
0.299584
0.354778
0.387413
0.31189
0.324805
0.380237
0.313462
0.391938
0.417758
0.358722
0.317844
0.64997
0.700267
0.675347
0.668459
0.638952
0.591635
0.660247
0.255868
0.349757
0.300019
0.24635
0.274159
0.17902
0.235942
0.151631
0.285562
0.246371
-0.0222017
0.159442
0.210365
0.0683837
0.145513
0.182386
1.43908
1.45326
1.42865
1.41588
1.40088
1.43218
1.46768
1.51952
1.51663
1.49812
1.50149
1.48264
1.4828
0.147156
0.305802
0.325395
0.181212
0.160397
0.0427784
0.0215692
0.799563
0.541963
0.559935
0.472187
0.300345
0.391915
1.02616
1.10802
1.11545
1.09283
1.02227
0.978423
1.06804
1.14472
0.870433
0.957588
0.911126
0.976172
1.00931
1.04887
0.980943
0.797412
1.063
1.22612
0.770516
0.842281
0.994452
0.99632
1.02528
0.989327
1.13786
0.953468
0.907058
0.879468
0.89177
1.00016
0.982401
1.04216
1.08498
0.745568
0.794397
0.76771
1.41833
1.4547
1.46649
1.42354
1.44417
1.44372
1.41324
1.46063
1.49826
1.50694
0.265186
0.414816
-0.085573
0.491277
0.742324
1.40512
1.11213
1.40797
1.37269
1.02852
1.16846
1.2537
1.24664
1.3117
1.24142
1.14488
1.20952
1.15442
1.22065
1.10137
1.06222
1.34888
1.31461
1.35741
1.35326
1.32624
1.36961
1.45057
1.53809
1.451
1.51482
1.49272
1.52988
0.385865
0.299238
0.356511
0.359693
0.352139
0.290073
0.0584103
0.111785
0.329964
0.265537
0.19277
0.238073
0.716355
0.738014
0.541036
0.686197
0.498478
0.336121
0.371036
0.447542
0.572851
0.649327
0.920558
0.942127
0.958326
0.971565
0.840058
1.00281
1.10641
1.08416
1.12426
1.01288
1.02769
1.01906
0.593387
0.768227
1.37214
1.6417
1.40025
1.20722
0.943075
1.03194
1.36274
1.26368
1.26967
1.33929
1.28068
0.885039
0.914199
0.972958
0.977261
0.973829
0.928644
0.890539
0.993247
1.01495
)
;

boundaryField
{
    wall-4
    {
        type            zeroGradient;
    }
    velocity-inlet-5
    {
        type            zeroGradient;
    }
    velocity-inlet-6
    {
        type            zeroGradient;
    }
    pressure-outlet-7
    {
        type            fixedValue;
        value           uniform 0;
    }
    wall-8
    {
        type            zeroGradient;
    }
    frontAndBackPlanes
    {
        type            empty;
    }
}


// ************************************************************************* //
