/*--------------------------------*- C++ -*----------------------------------*\
| =========                 |                                                 |
| \\      /  F ield         | OpenFOAM: The Open Source CFD Toolbox           |
|  \\    /   O peration     | Version:  2412                                  |
|   \\  /    A nd           | Website:  www.openfoam.com                      |
|    \\/     M anipulation  |                                                 |
\*---------------------------------------------------------------------------*/
FoamFile
{
    version     2.0;
    format      ascii;
    arch        "LSB;label=32;scalar=64";
    class       surfaceScalarField;
    location    "1";
    object      phi;
}
// * * * * * * * * * * * * * * * * * * * * * * * * * * * * * * * * * * * * * //

dimensions      [0 3 -1 0 0 0 0];

oriented        oriented;

internalField   nonuniform List<scalar> 
1300
(
3.75095
5.62643
-7.08757
3.75095
-6.37237
5.62643
-6.42145
6.42145
-1.4359
1.4359
1.88799
1.86296
-5.83101
5.83101
-5.67699
5.67699
-3.0752
3.0752
-5.40494
5.40494
-5.25412
5.25412
3.93605
-3.93605
-5.33956
5.33956
-2.13425
2.13425
-6.44621
6.44621
3.20824
-3.20824
-5.65584
5.65584
-1.72027
1.72027
-0.453448
4.2044
3.2975
3.2975
-2.75314
2.75314
-5.41354
5.41354
6.14275
-6.14275
9.92883
-9.92883
-2.84126
-3.25021
1.24515
-8.00995
-5.12723
-5.12723
-8.48427
8.48427
-2.85784
2.76859
3.21419
-3.21419
-2.64738
2.64738
-6.16758
-0.253864
-6.16758
6.57749
-0.156041
6.57749
-1.64499
0.209086
-1.64499
4.78681
-4.78681
1.22521
0.210691
1.22521
3.21018
-3.21018
-1.88645
3.77444
1.86451
-1.84584
6.05024
-1.90511
3.76808
-4.92479
4.92479
-5.99398
0.16297
-5.99398
5.87282
-0.0418079
5.87282
-5.55949
5.55949
-5.69978
0.0227911
-5.69978
5.58055
0.0964443
5.58055
3.30998
-3.30998
-3.13459
0.0593897
-3.13459
3.0818
-0.00659701
3.0818
0.258602
5.36783
-5.88503
8.65362
-5.36783
-0.0371126
5.3526
0.0523394
5.3526
-5.23041
-0.0237083
-5.23041
5.18196
0.0721609
5.18196
3.74234
0.193708
3.74234
-4.2437
0.307655
-4.2437
-3.17345
-3.29002
-5.42255
0.0829917
-5.42255
-2.2024
0.0681529
-2.2024
2.07086
0.0633945
2.07086
-3.97414
3.97414
-6.66043
0.214224
-6.66043
3.16485
0.0433823
3.16485
1.88458
1.86637
5.63553
-5.63553
2.4273
-5.68465
0.0288181
-5.68465
-5.70968
-4.21915
5.70968
-0.0538428
-1.05956
-0.660711
-1.05956
3.27175
0.0257543
3.27175
2.94146
0.140336
-2.94146
0.188321
3.70185
-3.70185
2.22343
0.529705
2.22343
-5.52765
5.52765
5.25175
-0.0697899
-5.25175
-0.161787
6.11368
0.0290637
6.11368
-6.11343
-0.0293131
-6.11343
3.27797
-6.52818
-3.32453
5.2194
0.120158
-5.2194
0.0921731
3.22783
-0.0136358
3.22783
-3.19557
3.19557
-3.19108
-0.023116
-3.19108
-2.51916
-0.128221
-2.51916
2.71603
-0.068654
2.71603
-5.69702
-0.470563
-5.69702
-6.66888
0.00845099
6.66888
-0.0913959
3.07238
-3.07238
-1.7774
0.13241
-1.7774
-5.18429
-0.512732
5.18429
-0.397476
-4.59055
-0.196259
-4.59055
-3.22736
0.0362825
3.22736
-0.0171808
3.16588
0.105868
-3.16588
-0.0442961
-1.87253
3.7389
-1.87843
3.74293
-4.71293
-0.211866
-4.71293
5.17083
-0.246038
5.17083
6.32981
0.116399
-6.32981
0.335824
5.69569
0.177136
5.69569
-5.49983
-0.0596588
-5.49983
5.60378
-0.0442913
5.60378
5.63726
0.0584291
-5.63726
-0.0625272
5.74495
-0.164402
5.74495
3.33706
-0.0270831
3.33706
-3.22079
-0.0891884
-3.22079
3.17092
-3.17092
3.07283
0.0980872
-3.07283
-0.061757
-11.157
11.1277
-0.117315
-11.0397
5.23529
5.23529
3.11062
0.631725
3.11062
-4.67547
0.431766
-4.67547
3.29585
-6.62037
3.22852
-6.40196
3.17823
-11.1882
3.42858
-6.71859
5.5628
-5.5628
5.3988
0.163995
-5.3988
-0.0237458
-2.19816
-0.00424013
-2.19816
-3.75203
-0.222115
-3.75203
4.32701
-0.352868
4.32701
-3.2231
3.2231
-3.17515
-0.0479533
3.17515
-0.0102927
5.63943
0.105523
-5.63943
-0.0452265
1.06706
0.158154
-1.06706
0.00749548
3.87078
-0.168935
3.87078
-3.51018
-0.19167
-3.51018
-2.1808
-0.0173671
2.1808
0.042638
-5.86882
0.341166
-5.86882
-11.0965
0.0568304
-11.0442
-6.0566
-6.0566
2.42767
11.0813
-3.22099
0.00020459
3.22099
0.00683584
3.12589
0.0972117
-3.12589
-0.0696859
-3.17935
0.00842717
3.17935
0.0162284
-2.38427
-0.134882
-2.38427
-2.88554
2.88554
-2.83817
-0.047366
2.83817
-0.122144
3.21601
-0.143632
3.21601
1.96785
0.103002
-1.96785
0.190457
-4.18177
-0.408787
-4.18177
5.26119
-0.0903533
5.26119
-3.40148
-0.108694
3.40148
-0.0644222
-0.0223641
11.1501
-5.21292
-0.0174898
5.21292
-11.1791
11.1616
-2.51497
0.1307
2.51497
0.595642
5.11162
0.416034
-5.11162
0.436149
5.51246
0.0913197
-5.51246
-0.050339
-3.55007
-0.201959
-3.55007
-4.5321
-0.180831
4.5321
-0.205085
-11.3108
-0.144172
11.4549
-11.2386
6.01299
0.100692
-6.01299
11.2623
-2.91707
-0.155303
2.91707
-0.0315336
3.31862
-0.10261
3.31862
4.11413
-0.243355
-4.11413
-0.0676319
-5.41062
-0.0892064
5.41062
-0.149435
-3.49848
-0.0515938
3.49848
-0.179858
-4.14578
4.17154
1.90446
-3.31706
-3.21112
-7.53621
1.79033
1.94857
4.21762
-7.06708
-4.1211
-6.97491
6.81948
-6.38333
-6.71816
6.91186
7.65325
-7.84951
-5.79026
5.77996
6.30371
-6.32089
1.84875
1.92568
10.7787
-10.6158
-10.101
9.88917
10.0809
-10.0581
10.4065
-10.4662
-11.9528
12.0441
-5.58755
5.64694
-6.5661
6.47691
-6.63447
6.57005
-3.20782
-3.19414
8.81912
-8.73613
11.5629
-11.534
-11.1894
11.4036
3.26784
0.903699
3.37371
-1.92339
3.77214
-1.84469
3.74915
3.29581
-6.50364
3.32456
-6.53568
5.92958
5.63328
-5.87574
-1.66048
-5.80846
5.79483
-5.72535
5.74158
10.9839
-11.2378
-1.83569
3.76137
-1.90724
3.85582
-3.38958
-2.40068
3.3462
0.871425
5.49051
3.32861
-5.61066
-1.36425
-7.55012
7.30677
-7.68222
7.49055
0.0209589
5.57627
-5.59723
5.43449
-1.86864
7.44491
4.95084
5.38261
5.65235
-5.23632
0.730982
-6.32821
-6.49
-2.33879
2.4712
2.13493
-1.92424
6.55105
1.1022
6.15357
-5.27267
-2.57684
-5.68146
3.81866
1.9613
3.77071
4.0225
2.28121
4.05878
2.9797
-3.06424
0.0845441
-3.0237
6.00339
0.697133
-5.42437
-4.55295
6.94315
3.83557
6.90134
-7.35836
-3.25739
-7.02253
-6.14179
-3.95925
-6.32262
6.59828
3.29089
6.35224
-7.72206
7.57262
6.63424
3.44662
6.73068
-6.61401
-3.44406
-6.67654
10.2955
-2.89431
-7.40119
-6.96954
-4.98326
7.01383
3.3927
7.42214
4.62198
7.3718
3.60402
6.69148
-6.99672
2.01346
-3.72613
-1.86142
-3.78788
3.57301
2.07393
3.56642
-4.23016
-2.33594
-4.22995
-4.18072
-2.45375
4.2078
2.26911
-4.26015
-3.42206
4.36885
2.2012
3.23782
-7.35892
3.48077
-6.67491
-6.19227
-2.54386
-6.21602
4.00662
2.65431
-6.66093
-2.49701
10.6932
-5.05989
9.03269
-7.1962
-4.33784
-7.24143
-8.8285
-2.36093
-8.82005
-5.1643
4.96234
-5.63759
5.28472
10.5406
-5.91247
-4.62816
-4.00521
-2.31568
4.04951
-0.675803
-3.63392
3.71847
0.138217
3.88737
4.79106
4.11526
-3.78266
-1.94269
-3.85235
3.76215
1.97943
3.77058
8.53542
2.44847
8.37938
-7.57455
-3.66321
-8.04511
5.51518
-5.6434
2.94893
-2.96629
5.11674
2.3738
-4.94781
-2.60231
5.85755
-3.05118
-2.80637
-12.3033
7.895
4.40831
-4.85839
0.576102
2.29637
-4.62057
-2.09759
4.31291
1.0697
8.96469
6.8671
-5.2571
5.59827
6.19784
6.12805
-0.361954
3.86524
-3.73454
5.92995
-0.911745
-5.0182
5.78353
-6.29626
-2.26158
-5.95065
3.68907
-0.142686
0.0833827
-0.744094
-1.9442
-0.394594
-1.75374
1.176
0.958933
1.33415
1.0153
1.45591
-2.50679
0.259248
2.24754
-1.49149
-1.66499
-3.96033
-0.233254
4.19358
5.50082
1.80595
-5.43319
-0.248266
2.65234
-2.58895
-1.52581
-2.43452
1.23013
-2.75594
-3.07558
-2.15141
5.22699
-3.31855
-0.533792
3.22134
0.549367
-3.78466
-2.0238
3.80778
0.251003
-2.91587
5.96477
-3.0489
-4.85856
2.52876
3.47463
4.49006
-4.62747
2.31048
2.31699
-1.15284
5.8238
1.07754
6.00094
-8.96463
5.70724
7.81998
3.58367
-7.93638
0.913843
-8.05079
9.35174
-8.3626
-0.989136
4.81067
4.54107
5.31065
5.22998
-3.3661
8.67676
-1.23172
-7.13088
9.28251
-5.69884
5.44618
-11.145
-10.6762
3.54528
-6.73521
8.38852
-1.65331
-2.37348
-5.34858
9.10869
-0.913312
-8.19538
5.43893
-5.07738
-5.4166
10.494
-7.97169
8.86066
-2.57684
-6.28382
-6.53473
-3.93145
6.62394
0.948686
-9.645
11.6585
-2.95352
5.84034
0.890345
5.67594
3.94973
-5.94517
1.99544
4.02196
-6.5988
2.37329
-8.31847
-4.74475
9.41516
-4.67041
-7.2886
-6.63895
-0.649651
1.98655
9.67191
-6.60853
5.31917
1.28936
3.20872
0.561858
-3.30681
-0.481073
0.312492
4.45253
-4.76502
3.87891
4.01924
3.48961
0.962919
3.77223
2.0226
-3.77907
-0.450889
-3.84392
1.39017
-1.57481
-3.45117
4.84133
-3.93226
0.48109
-2.59833
-3.39321
5.99153
-4.45975
2.84849
3.11628
4.82792
-4.75079
1.35758
-2.35641
-2.39438
2.57467
-4.14948
1.83856
3.00278
4.03976
0.617696
4.61087
4.80428
-7.26518
0.590266
8.1329
-6.76865
1.56738
5.80442
-6.88655
0.2476
-5.96842
1.13275
-6.19263
-5.52819
6.41418
-8.7751
-4.73085
8.12446
0.254919
-8.03307
-0.786977
-3.68964
-1.47466
-3.74124
-1.90554
-3.73205
-5.27165
-1.00818
-4.26346
3.95416
-4.22871
-2.09391
4.43379
0.850931
-4.45899
4.30369
-4.44753
4.34492
0.140771
3.5777
4.25603
1.94035
-2.42486
4.36521
-6.61439
9.06286
-10.6753
4.06092
4.41842
-8.08162
-6.2569
3.39987
2.11531
3.33122
5.57976
-6.9514
1.37165
-6.28712
7.25205
-0.964926
-9.79665
3.50953
-4.2169
2.60717
0.341753
2.60293
0.697773
2.25205
-2.94982
-2.26852
-2.22588
-2.20073
-3.25838
5.45912
0.91189
-3.19961
2.28772
-3.31839
4.23028
-0.1302
-3.06941
4.9111
-2.65906
5.25286
-3.44859
1.80426
3.19849
5.27014
-2.07165
4.09687
-1.72307
1.76383
-3.83548
-1.49456
-2.89713
4.97106
-3.0944
3.57549
-0.206037
3.78152
-3.98081
0.929625
-0.491192
3.52805
3.71637
3.97587
-3.01295
2.66598
-4.38905
-1.1695
-3.77135
-0.768573
-0.832811
-5.05551
5.88832
4.83778
-5.67059
-2.78741
5.54404
-2.75663
4.70045
-3.32534
-1.37511
-2.80524
-2.83816
2.94013
0.925114
5.62557
0.300175
-3.62551
-3.43437
-2.83872
4.70832
1.22163
-0.910475
5.31878
-1.3859
1.46928
0.529641
0.804511
1.13407
-0.604434
-0.0679124
1.20199
-0.812006
1.88565
0.766696
-1.98865
0.23491
-1.74243
2.97256
0.505113
-1.46405
0.859612
2.32926
-3.24101
4.77731
-1.54503
-3.23227
7.10657
1.83939
-3.38442
4.11126
-4.25395
2.78698
-3.02023
-0.597441
-4.85139
-3.74919
-2.15303
4.44075
-3.30609
5.11203
1.36517
-4.86377
6.22894
-3.47123
1.31982
-2.64545
3.41215
-0.759051
-1.8864
2.48176
2.74524
-2.8066
0.372088
-0.324849
1.97221
-2.29706
-0.783727
-2.27522
-4.45403
4.70503
-2.19239
4.50287
2.17282
-1.96407
6.46695
1.76112
-3.72519
-3.09744
-3.63123
-1.4082
3.08186
-0.744826
-5.93171
-7.02864
5.87328
0.127651
-8.97759
10.049
-1.07136
-5.14202
-0.565218
5.37589
-7.24667
0.647871
-4.87337
5.17558
6.25312
6.38077
-8.06493
-0.13045
-4.77404
1.25663
-6.03067
5.7977
-2.76464
6.30992
-6.76305
4.66914
-5.91212
5.32078
-0.70989
5.25381
-3.25837
2.14738
-6.07884
-5.13015
6.96127
-3.51464
7.85161
-4.02581
11.8774
-6.97933
7.02248
4.85495
-1.28496
-5.95646
-6.84747
5.56251
0.175002
5.85094
4.88228
-2.85968
4.43139
2.05404
-4.41045
-2.09544
-6.35588
1.94543
-3.2396
-1.69855
3.64397
3.12937
3.69123
1.24959
-3.21016
6.61815
-7.2678
-1.94774
-3.58045
6.80819
-1.24568
3.72229
-7.30274
-2.47035
5.16663
-0.531648
-4.63498
0.745836
-5.47668
2.51421
-7.99089
6.26089
-7.04787
1.22444
-5.44134
-3.23455
-3.26608
-1.28228
-3.16526
-4.50434
3.22206
-0.994804
3.30889
-5.40903
4.87738
-1.84301
5.06507
-3.32797
-0.413265
3.50783
0.837095
5.90217
-0.37828
-5.87862
-1.5437
5.66173
-4.11803
3.16461
-5.43379
0.227943
3.48692
3.61965
-7.17599
-0.905635
-6.78426
-2.37674
4.49204
3.1673
8.00507
1.05367
4.99473
-0.502685
6.0484
2.82853
2.70639
-3.80447
5.17611
2.08385
6.14478
-0.816339
2.6206
1.7866
1.85475
0.734202
2.22453
1.49184
3.15416
0.20434
-2.02154
3.10507
-5.9438
-0.520439
-5.31207
1.59979
3.98819
-2.3884
4.71097
-3.48934
0.59294
2.63111
-1.83665
-0.794462
-2.38709
-0.367368
0.834619
-1.04875
1.90836
1.92381
-2.74298
0.355888
-0.0646753
-3.68451
3.08491
-2.71282
0.032415
6.26135
-2.35413
0.0570714
-1.03431
-2.21815
-2.61274
2.37783
6.05299
0.413952
3.00409
5.11898
3.09519
0.235507
4.23629
-5.8896
-4.08218
-6.02005
-0.222346
5.15354
1.73286
7.93904
6.58781
5.34214
-1.9606
-9.2284
7.30913
-2.13302
6.34421
-1.70922
-6.28167
6.49829
2.56458
-6.75321
-0.294662
-6.57634
-8.70935
-0.326064
5.20345
-5.5761
5.16284
3.68818
0.575285
-2.77067
-0.495409
2.81804
-0.11165
5.93675
-1.09701
-5.51369
6.6107
-2.89118
2.37074
4.96588
0.352901
4.17142
0.682087
-4.8316
-7.22
-1.14649
-2.09452
-4.37876
-0.185177
-1.73863
3.93501
-1.56427
2.5599
5.04643
5.63937
-1.59832
-4.07227
4.35494
-1.79504
3.84433
)
;

boundaryField
{
    wall-4
    {
        type            calculated;
        value           uniform 0;
    }
    velocity-inlet-5
    {
        type            calculated;
        value           uniform -3.75095;
    }
    velocity-inlet-6
    {
        type            calculated;
        value           uniform -5.62643;
    }
    pressure-outlet-7
    {
        type            calculated;
        value           nonuniform List<scalar> 8(7.08757 6.37237 6.09147 6.76481 6.46346 6.6025 6.52437 6.60681);
    }
    wall-8
    {
        type            calculated;
        value           uniform 0;
    }
    frontAndBackPlanes
    {
        type            empty;
    }
}


// ************************************************************************* //
