/*--------------------------------*- C++ -*----------------------------------*\
| =========                 |                                                 |
| \\      /  F ield         | OpenFOAM: The Open Source CFD Toolbox           |
|  \\    /   O peration     | Version:  2412                                  |
|   \\  /    A nd           | Website:  www.openfoam.com                      |
|    \\/     M anipulation  |                                                 |
\*---------------------------------------------------------------------------*/
FoamFile
{
    version     2.0;
    format      ascii;
    arch        "LSB;label=32;scalar=64";
    class       volVectorField;
    location    "1";
    object      U;
}
// * * * * * * * * * * * * * * * * * * * * * * * * * * * * * * * * * * * * * //

dimensions      [0 1 -1 0 0 0 0];

internalField   nonuniform List<vector> 
918
(
(0.821538 -0.191731 0)
(0.0219162 2.97228 0)
(-0.21666 1.78695 0)
(0.688632 0.196223 0)
(0.0440199 1.72488 -1.05401e-19)
(-0.0860245 2.87391 -1.41482e-18)
(1.1366 1.76187 2.7474e-19)
(0.476393 0.284463 -2.81536e-20)
(0.887193 -0.00193672 0)
(0.0417546 1.77724 0)
(0.0168564 1.74181 0)
(0.941121 0.0123167 0)
(-0.0631291 3.0587 0)
(0.0287262 2.92699 0)
(-0.0888583 2.71422 1.67266e-19)
(-0.0233905 1.71765 -9.84013e-20)
(0.689436 0.161323 2.28975e-18)
(0.237016 2.05278 2.58982e-19)
(0.980643 0.0333763 0)
(0.0400081 1.72916 0)
(0.742559 0.128621 8.42012e-20)
(0.682217 -0.0571746 0)
(0.856248 0.000863963 0)
(1.05484 0.0540724 0)
(0.850311 0.0588823 0)
(0.0380613 2.9871 0)
(-0.0360388 2.86177 4.47284e-19)
(-0.195369 1.74738 0)
(-0.0489128 1.66475 0)
(-0.240103 1.73423 0)
(0.048276 1.7394 0)
(-0.067028 1.68817 8.29326e-20)
(-0.0330064 1.7176 0)
(-0.0539551 3.02656 -4.0787e-23)
(-0.00751368 2.97916 1.19539e-18)
(0.0221398 3.01157 0)
(0.98208 -0.00519042 0)
(0.818219 1.27482 5.76507e-19)
(1.16794 1.67598 2.40225e-20)
(1.26468 1.55348 8.29903e-20)
(0.972338 1.87205 -6.66646e-20)
(0.932158 1.94037 4.58646e-19)
(0.52613 0.302429 2.69258e-20)
(0.535966 0.28138 0)
(1.37081 0.785968 0)
(0.462584 0.316899 1.13949e-19)
(0.417316 0.28609 -1.18269e-19)
(0.982324 -0.0164732 0)
(1.00718 -0.000315601 0)
(0.891359 -0.00276964 0)
(0.939217 -0.0846632 0)
(0.970541 -0.00302324 0)
(0.92981 0.0176312 0)
(-0.00260924 1.60397 -1.05612e-18)
(0.0344188 1.83068 0)
(0.0271856 1.8305 0)
(-0.0202636 1.79796 0)
(-0.0139828 1.80153 0)
(-0.0149567 1.71971 0)
(0.0284549 1.76191 0)
(0.0111222 1.7459 0)
(-0.00133956 1.74233 0)
(-0.00896748 1.70584 0)
(1.00896 -0.00255133 0)
(0.965287 0.026627 0)
(0.95846 0.00350144 0)
(0.949469 -0.00747783 0)
(0.942747 -0.0021768 0)
(-0.00508517 2.97288 4.57811e-19)
(0.0284381 2.92091 0)
(-0.0357618 2.9497 0)
(-0.0707165 3.08704 2.45782e-24)
(-0.0930784 2.94424 -7.53773e-19)
(-0.0148542 3.06784 0)
(0.0289171 2.97789 0)
(0.0201075 2.98498 6.03737e-25)
(0.025087 2.92017 0)
(0.0782115 2.98429 0)
(0.0915324 2.90043 0)
(0.139084 2.85215 0)
(-0.117315 2.88574 0)
(-0.00591805 2.76532 1.55422e-19)
(-0.124578 2.65542 0)
(-0.00270865 1.73007 0)
(-0.0236057 1.74188 9.70827e-20)
(0.00702296 1.71529 -1.16822e-19)
(0.723497 0.165395 -7.84189e-19)
(0.729072 0.148441 -7.60868e-19)
(0.691593 0.221264 -2.36216e-18)
(0.660222 0.203855 -1.50679e-18)
(0.201186 1.39465 0)
(0.355895 2.11291 -2.9739e-19)
(0.465872 2.10042 5.29246e-19)
(0.987633 -0.00429285 0)
(0.970106 -0.00169619 0)
(0.895179 -0.015799 0)
(1.01694 0.0303498 0)
(0.951 0.0739695 -8.10612e-18)
(1.02277 0.114973 6.02751e-18)
(0.0287804 1.76675 0)
(0.00788345 1.73581 0)
(0.0228562 1.70891 0)
(-0.0241196 1.74346 0)
(-0.0235024 1.75198 0)
(0.815462 0.155709 5.42888e-20)
(0.379349 0.353887 0)
(1.03656 0.0220127 0)
(0.996089 -0.00518353 0)
(0.940512 0.0285901 0)
(0.888628 0.0958189 0)
(0.892962 0.020018 0)
(1.13825 -0.0164655 0)
(0.837981 0.035121 0)
(0.817259 0.0281138 3.59892e-18)
(-0.0584186 2.85525 2.57997e-19)
(-0.0265781 2.9692 0)
(-0.0493429 3.06352 0)
(-0.00630678 2.91992 0)
(-0.00757538 2.94283 3.79243e-19)
(0.0405266 2.87641 0)
(-0.0259785 2.95023 -1.26314e-18)
(-0.113818 2.88564 4.43029e-19)
(0.0418967 1.7358 0)
(-0.00831643 1.74862 0)
(-0.00836651 1.72632 -3.83669e-21)
(-0.0501284 1.74067 0)
(0.0249197 1.70086 0)
(1.00113 0.00221253 0)
(0.986741 -0.0161103 0)
(0.974622 -0.00464287 0)
(0.9962 -0.00268869 0)
(0.975123 0.017554 0)
(0.90841 1.32904 -7.19638e-19)
(0.883469 1.23056 0)
(0.820081 1.33336 9.16959e-20)
(0.78185 1.24779 0)
(1.21357 1.43663 1.01432e-20)
(1.36418 1.26117 -1.28003e-19)
(0.570879 2.11104 0)
(0.79115 2.01611 0)
(0.712845 2.05182 0)
(0.5337 1.2642 -5.55647e-19)
(0.562997 0.305604 0)
(0.568703 0.250291 4.02515e-19)
(1.23379 1.21013 0)
(1.26921 0.952512 0)
(1.377 1.01428 3.18335e-19)
(1.32435 0.753752 0)
(1.38179 0.611992 8.06956e-20)
(0.989949 0.0253138 0)
(0.995934 -0.0135216 0)
(0.989256 -0.00963851 0)
(0.995941 0.00372536 0)
(0.992538 -0.0267607 0)
(0.965728 0.00981604 0)
(0.984785 0.00356389 0)
(0.95021 -0.0019147 0)
(0.897658 0.00862143 0)
(-0.00815171 1.62524 5.47166e-19)
(0.00478049 1.5632 0)
(0.0255605 1.65851 5.18703e-19)
(0.0321565 1.66285 -9.27386e-19)
(0.113929 2.01854 -2.11235e-19)
(0.00901955 1.91432 0)
(0.0315874 1.95236 0)
(-0.00927026 1.80039 0)
(-0.00132965 1.74553 0)
(-0.0294849 1.73473 -3.81296e-21)
(-0.0120144 1.71347 0)
(0.00894402 1.7437 -2.76031e-19)
(0.0191535 1.7284 -3.73479e-20)
(0.0288715 1.74993 0)
(0.0248369 1.75567 0)
(0.00586025 1.72173 0)
(0.00135188 1.75145 0)
(-0.00462658 1.75895 0)
(1.03077 0.0172086 0)
(1.01876 0.00617471 0)
(1.01201 0.00129579 0)
(0.982633 -0.00690716 0)
(0.969469 -0.00788661 0)
(0.973968 0.00422417 0)
(0.963219 0.0184956 0)
(0.935812 -0.00147203 0)
(0.041592 3.07296 -4.05297e-21)
(0.0584449 3.04355 0)
(0.0531954 3.00996 0)
(0.0265003 2.93289 0)
(0.643744 3.05919 0)
(0.914568 2.49102 4.23301e-19)
(-0.039135 2.80889 0)
(-0.0680129 2.73799 0)
(-0.00811394 1.79838 0)
(-0.0164916 1.68321 0)
(-0.00305932 1.7391 0)
(0.069022 1.76409 -4.3051e-20)
(0.00400171 1.79489 0)
(0.0508697 1.7734 0)
(0.0318182 1.72618 4.25836e-20)
(0.0200194 1.74858 1.73461e-19)
(-0.00228745 1.72401 1.19601e-19)
(0.0140556 1.6856 0)
(0.752887 0.153377 1.24556e-18)
(0.746402 0.0852307 -1.23064e-18)
(0.212393 1.41634 0)
(0.233889 1.34663 -3.30055e-19)
(0.144364 1.49794 -1.00971e-18)
(0.102188 1.47821 1.00987e-18)
(0.987776 -0.0104052 0)
(0.986513 -0.0242027 0)
(0.985903 0.00190293 0)
(0.96765 0.00994102 0)
(0.00516792 1.76791 0)
(0.0270655 1.74775 0)
(0.00768605 1.73013 0)
(0.42487 0.293613 9.5858e-19)
(0.45966 0.263702 -9.0889e-19)
(0.379496 0.289505 0)
(1.18858 0.102945 1.21802e-19)
(1.24282 0.0400836 0)
(1.12436 0.0438016 0)
(1.06917 0.00193688 0)
(0.77726 0.101068 0)
(0.815721 0.0581687 -5.74629e-18)
(0.762389 0.0499815 2.19701e-18)
(-0.0302886 2.97355 2.1735e-19)
(0.0506854 2.91286 -1.37274e-20)
(0.0882768 3.01298 -8.60195e-21)
(0.116518 3.02514 1.79688e-19)
(-0.0927828 2.96375 1.86608e-20)
(-0.150949 2.91965 -6.03273e-23)
(-0.104984 3.05333 -2.29419e-19)
(0.110785 3.01404 1.6392e-19)
(0.121763 3.06933 -2.08286e-19)
(1.00698 -0.000677214 0)
(0.990836 0.0414749 0)
(0.981951 0.0284836 0)
(0.986744 -0.0111649 0)
(0.978358 -0.0037771 0)
(0.954904 -0.00295267 0)
(0.979401 -0.0136654 0)
(0.99303 0.0140045 0)
(0.971741 0.00842454 0)
(0.966622 1.29097 -6.01504e-19)
(0.889095 1.2733 0)
(0.670741 1.24656 1.65394e-19)
(0.695436 1.33441 1.28254e-18)
(0.77646 1.32896 -7.81381e-19)
(0.728414 1.26363 1.49921e-18)
(0.508314 1.31836 2.72963e-18)
(0.507607 1.27338 5.0156e-19)
(0.661765 0.238463 -1.58235e-18)
(0.61385 0.272849 3.96473e-19)
(0.627098 0.237406 7.50914e-19)
(1.28326 0.553516 -6.29221e-19)
(1.33624 0.373019 -7.42519e-19)
(0.00063742 1.69604 4.0985e-19)
(0.00329297 1.66773 0)
(1.074 0.0289536 0)
(1.04945 0.00756472 0)
(1.03496 -0.00478999 0)
(0.024374 3.08169 0)
(-0.00616277 2.98655 4.18587e-19)
(-0.00051168 2.98947 0)
(-0.0125117 2.89973 -4.51964e-19)
(-0.00256591 3.07697 9.1606e-20)
(0.0220885 3.08157 0)
(0.856829 1.3693 4.72478e-20)
(0.919854 1.8245 -2.70753e-19)
(0.713267 1.47767 -2.20134e-19)
(-0.0487146 2.91545 -2.35423e-19)
(-0.0373862 2.8464 0)
(-0.0676329 2.79695 0)
(-0.030051 1.75871 -1.60002e-20)
(0.0311745 1.72049 -1.73006e-20)
(-0.0469234 1.69672 1.33597e-20)
(0.249403 1.38003 1.05246e-18)
(0.278945 1.31711 -7.11376e-19)
(0.0207837 1.60388 7.73272e-19)
(0.0800044 1.54804 -8.65163e-19)
(0.0593661 1.53295 6.8763e-20)
(-0.0814756 3.09303 -2.31749e-19)
(-0.076042 3.10358 2.95099e-19)
(0.00742594 2.95366 2.37719e-19)
(0.0730249 2.9759 -1.8637e-19)
(0.102295 2.90984 -2.41909e-19)
(0.00397928 3.06637 -6.98878e-19)
(-0.0627257 3.05974 7.83685e-19)
(0.534424 1.30765 0)
(0.595725 1.32739 -2.74158e-18)
(0.567978 1.22827 1.22027e-18)
(0.426263 1.35928 1.43841e-18)
(0.421531 1.28779 -2.24915e-18)
(1.2551 0.185039 4.45967e-19)
(1.29871 0.36633 0)
(1.32245 0.245394 -4.00227e-19)
(-0.000744356 1.73033 -4.92634e-21)
(-0.0123102 1.70351 0)
(0.0120918 1.69262 0)
(0.29908 1.38285 -3.72977e-19)
(0.359333 1.35516 -8.37367e-19)
(0.38004 1.33228 1.56299e-18)
(0.983563 -0.0490259 0)
(1.05313 -0.0852949 1.49656e-18)
(0.0419779 1.74485 0)
(-0.023557 1.7419 0)
(1.05672 -0.0171562 5.13311e-20)
(0.911702 -0.0180346 3.1909e-18)
(0.0179295 1.80191 5.67871e-20)
(0.0845769 1.80361 0)
(-0.0714189 2.94442 2.09058e-19)
(-0.019577 2.57258 0)
(1.18034 0.634906 -4.20238e-19)
(1.03596 -0.0128642 -2.11161e-20)
(1.00628 0.0423482 0)
(0.998494 0.00129034 -4.01335e-21)
(0.0415643 1.90052 0)
(0.133203 1.73592 0)
(-0.0374498 1.78241 0)
(0.0920888 1.79884 2.57978e-19)
(0.0056683 1.79358 1.66465e-19)
(0.997732 -0.00810459 1.39281e-20)
(1.05463 0.0751762 0)
(1.08021 0.0446782 0)
(-0.0152243 1.71326 0)
(0.0406652 1.76893 0)
(-0.040781 1.78086 0)
(0.227241 1.96632 7.03876e-20)
(0.98159 -0.0850319 0)
(0.984893 -0.0619866 0)
(0.966964 0.0500364 1.91282e-18)
(1.00237 0.0289713 -2.25337e-18)
(1.10893 -0.0542822 0)
(0.00407275 1.72644 0)
(0.0153696 1.73343 0)
(-0.00413074 1.757 0)
(-0.0162435 1.81115 0)
(-0.0530486 1.76597 0)
(0.00195135 1.71434 0)
(1.01525 0.00672108 0)
(1.02839 -0.0153098 -2.68775e-21)
(0.867701 1.6975 -1.18153e-20)
(0.971746 -0.0738494 -1.90891e-18)
(1.04721 0.038889 2.28023e-18)
(1.11084 0.0286195 0)
(0.978564 0.000319507 1.85806e-18)
(1.02034 0.0623003 -2.30204e-18)
(0.995326 0.029269 0)
(0.0211672 1.78913 0)
(0.0576216 1.76398 1.36103e-19)
(-0.0154628 1.73618 -9.44697e-20)
(1.15903 0.29306 2.51041e-18)
(1.1133 0.0815467 0)
(-0.298822 3.00077 -3.2816e-19)
(-0.0554426 3.13509 -8.07322e-21)
(-0.151562 2.97365 8.48896e-19)
(-0.0303806 2.93193 -7.76874e-20)
(-0.0226449 2.89119 0)
(-0.0517589 2.96987 1.15272e-19)
(-0.0900415 3.094 3.00279e-19)
(-0.0703992 3.01405 -2.09476e-19)
(-0.104763 3.08539 0)
(0.645845 0.281178 0)
(0.494574 0.348255 0)
(1.08186 0.81535 1.23046e-18)
(1.14623 0.935226 5.80054e-19)
(1.12106 0.581054 0)
(1.1286 0.616672 0)
(1.03072 0.0201739 -3.47261e-18)
(0.981183 0.00156383 1.39791e-20)
(1.03827 -0.0620316 0)
(1.00254 -0.0556687 0)
(0.926393 0.0604593 0)
(1.0309 -0.0278383 0)
(1.00588 0.0206836 0)
(0.99646 -0.0474251 0)
(1.01763 -0.0963174 0)
(0.95997 0.000936178 0)
(0.0341774 1.88521 0)
(0.00414124 1.81057 0)
(0.118595 1.85085 0)
(0.178701 1.89292 0)
(0.109146 1.65335 0)
(0.0300786 1.66846 -5.48074e-19)
(0.133138 1.72531 0)
(0.0580855 1.68402 3.54778e-19)
(0.0897915 1.7646 -3.68494e-19)
(-0.0119866 1.80666 0)
(0.0605207 1.74338 0)
(-0.0445414 1.76408 0)
(-0.0629364 1.75914 0)
(-0.0292815 1.76166 -1.53983e-19)
(-0.0514083 1.74637 3.35893e-19)
(0.0671712 1.80498 2.62846e-19)
(0.00673714 1.76527 0)
(0.00906397 1.77875 -4.51486e-19)
(0.00880877 1.73595 -3.37918e-19)
(0.0250903 1.79771 9.42096e-20)
(-0.125008 1.62714 -4.17234e-19)
(0.0795527 1.72981 -3.31407e-19)
(0.988344 -0.0254994 3.14158e-18)
(0.988747 -0.0595714 -3.6775e-20)
(0.991548 0.0275028 -3.28225e-18)
(0.915976 0.0055991 4.27181e-18)
(1.04912 0.0501679 0)
(1.03629 0.000683013 0)
(1.03545 0.0268422 0)
(1.06373 0.0058717 0)
(1.02189 -0.00846762 0)
(1.08013 0.0657818 0)
(1.07863 0.0316371 0)
(1.04995 0.026138 0)
(-0.171191 1.70806 -1.05623e-20)
(0.0491783 1.76564 0)
(-0.051917 1.73218 0)
(0.0394759 1.74426 6.85811e-20)
(0.052078 1.78178 -3.48199e-21)
(0.00989952 1.81749 5.11142e-20)
(-0.0729818 1.72188 -4.99853e-20)
(-0.0539366 1.75901 0)
(-0.0270839 1.77595 0)
(0.0805725 1.73565 0)
(-0.050754 1.76186 0)
(-0.0693996 1.79115 0)
(0.391015 1.90044 -2.72875e-19)
(0.443307 1.99859 1.50938e-21)
(0.315492 1.47342 -2.49656e-19)
(0.235198 1.59744 6.65488e-19)
(0.317566 1.74223 1.5885e-19)
(1.02873 0.0209826 0)
(0.993621 0.0257361 0)
(1.02449 0.0618359 0)
(0.967169 -0.0446415 0)
(1.00023 -0.0134168 0)
(0.92867 0.0451221 0)
(0.982175 0.117358 0)
(1.00342 0.0826161 0)
(0.991384 -0.0312953 3.3944e-18)
(1.00546 -0.0369638 -4.36492e-18)
(1.01816 0.0111611 -3.31315e-18)
(0.978201 0.022176 4.33393e-18)
(0.85968 1.70001 0)
(0.806364 1.71981 -2.25359e-19)
(0.874059 1.56838 -3.05887e-19)
(0.974834 1.51011 4.0981e-19)
(0.876075 1.54895 2.50644e-18)
(0.858936 0.10518 1.37132e-18)
(1.11996 0.0934518 0)
(1.15132 0.227053 -2.05525e-18)
(1.11847 0.102313 -8.46963e-20)
(0.96969 0.139678 0)
(-0.649982 2.76311 6.48936e-19)
(-0.399376 2.76992 -5.99158e-19)
(-0.368933 3.13433 1.01945e-19)
(-0.374421 1.40964 1.7311e-19)
(-0.100538 2.71724 9.84163e-20)
(0.0204789 2.8682 0)
(0.0734455 2.76162 -1.29723e-19)
(-0.518925 2.75798 -1.6669e-18)
(-0.515303 2.62767 0)
(-0.0566214 3.02565 1.2188e-20)
(-0.0807128 3.07835 -2.00667e-19)
(-0.0512161 3.07061 3.31404e-19)
(-0.0471306 3.09615 0)
(-0.0690452 3.01069 0)
(1.05549 1.79153 0)
(0.202738 1.08451 -1.15002e-18)
(1.08966 1.17247 4.76689e-19)
(0.92721 1.41357 0)
(0.797209 1.14898 -4.93461e-19)
(1.0232 1.12089 5.91672e-20)
(0.246345 -0.154085 -7.14869e-19)
(0.64237 0.275022 -1.13164e-20)
(0.628071 0.309814 8.42064e-19)
(0.46245 0.39474 4.85728e-20)
(0.399781 0.32642 -1.89595e-18)
(0.589057 0.391875 0)
(0.600035 0.454537 1.33635e-18)
(0.591947 0.361203 0)
(0.478253 0.371535 0)
(0.514335 0.352171 0)
(0.602354 0.731856 1.10834e-18)
(1.19575 0.250599 -2.37545e-20)
(1.15253 0.440682 0)
(1.20556 0.278753 0)
(0.767285 0.213224 1.31087e-18)
(0.623567 0.661482 -8.63598e-19)
(0.561207 0.52861 -1.62407e-18)
(0.833912 0.399816 -1.85095e-18)
(0.992033 -0.00293828 2.35842e-18)
(1.00678 0.106184 -2.40762e-18)
(0.995402 0.0671389 0)
(1.01855 -0.0266207 0)
(1.00641 -0.0422668 -2.21889e-18)
(1.01011 0.0182972 2.19726e-18)
(0.978283 0.0496572 0)
(0.958942 -0.0012958 0)
(1.0267 -0.0152254 0)
(0.982215 -0.0161093 0)
(1.02503 -0.0207163 0)
(0.980541 -0.0452566 0)
(0.0817414 1.80931 0)
(0.11238 1.79447 0)
(0.0781211 1.82863 -3.26254e-19)
(0.235092 1.96139 -8.06458e-20)
(0.232868 1.92018 -2.58911e-19)
(0.159523 1.93803 1.73186e-19)
(0.0115541 1.78938 0)
(0.236579 1.72875 -4.5049e-19)
(0.0705619 1.81813 0)
(0.301294 1.7222 -2.2118e-19)
(0.221928 1.60469 9.02126e-19)
(0.252329 1.73449 3.97441e-19)
(0.185999 1.83633 -1.56924e-19)
(0.123894 1.74073 -1.27056e-19)
(0.208177 1.82948 -4.9248e-19)
(0.215159 1.7378 4.60676e-19)
(0.238788 1.71 3.5286e-19)
(0.0317966 1.69387 -1.70371e-19)
(0.0475747 1.70975 0)
(-0.00356135 1.72334 4.29577e-19)
(-0.0342761 1.7117 0)
(0.019546 1.71066 -3.99023e-19)
(0.00366914 1.68628 0)
(0.0378365 1.74467 -2.14427e-19)
(0.0876276 1.75186 0)
(0.0613885 1.73787 0)
(0.0380746 1.78223 2.5632e-19)
(0.0396239 1.71713 6.20055e-20)
(0.0631852 1.7716 4.46712e-19)
(0.0165666 1.70682 4.18708e-21)
(0.115005 1.67159 9.16203e-20)
(0.0665412 1.63877 -8.2151e-20)
(-0.0090863 1.73413 0)
(-0.0979341 1.76914 0)
(-0.0179776 1.7448 3.45305e-19)
(-0.0723504 1.76422 4.43311e-19)
(0.0167319 1.79239 -5.23359e-19)
(-0.00100595 1.76456 0)
(0.0436183 1.7254 -3.57707e-19)
(-0.0691202 1.68791 6.55462e-20)
(-0.0320072 1.80944 -9.50996e-21)
(0.121971 1.83202 -1.06158e-19)
(0.0773889 1.63869 -9.79701e-20)
(-0.0312291 1.70452 3.83918e-19)
(0.991114 0.0468426 -2.34962e-18)
(0.992457 -0.0673309 2.17504e-18)
(0.986361 0.0509652 0)
(0.966353 -0.0545409 3.06302e-18)
(0.910869 0.127235 -3.38882e-18)
(0.94301 0.0539649 3.6586e-18)
(0.964286 -0.0245849 -3.86292e-19)
(1.05293 -0.0724344 0)
(1.02394 -0.0173393 2.16766e-18)
(1.0064 -0.0519198 -2.15677e-18)
(0.967756 0.0039038 -1.21517e-19)
(0.985528 0.066624 1.0194e-18)
(0.962101 0.0779842 0)
(0.972717 0.080091 -3.67997e-19)
(0.983029 0.0425348 0)
(0.967912 0.0577284 0)
(1.02068 0.0816498 0)
(0.969575 0.00842441 0)
(1.02296 0.0683307 7.65188e-19)
(1.03308 0.0252965 -1.7373e-18)
(0.980224 -0.0146306 -8.05538e-19)
(1.00655 -0.000876976 -8.9288e-19)
(1.05491 0.0568771 1.72494e-18)
(1.00491 0.0598489 0)
(0.979094 0.0202014 0)
(0.0331288 1.83036 -1.8473e-20)
(0.139216 1.70948 -1.6785e-20)
(0.0386373 1.69698 0)
(0.0407892 1.79345 1.92036e-20)
(-0.114785 1.73355 2.73875e-20)
(-0.00543357 1.71403 -3.65455e-20)
(-0.0808207 1.7782 3.11342e-19)
(0.0384107 1.76568 -1.51631e-20)
(0.143023 1.71967 9.00607e-20)
(-0.0436915 1.76823 -1.42367e-19)
(-0.0852455 1.77796 -4.69011e-21)
(0.0223845 1.71187 -2.07153e-20)
(-0.017404 1.76219 2.25189e-19)
(0.474472 1.78577 1.88114e-19)
(0.379762 1.75927 5.707e-19)
(0.758801 1.78501 2.17915e-19)
(0.592021 1.92397 -1.45132e-21)
(0.649457 1.92991 0)
(0.27937 1.45646 2.89798e-19)
(0.270517 1.42164 3.60335e-19)
(0.228013 1.49864 5.41587e-20)
(0.354932 1.52963 -1.03928e-18)
(0.363657 1.48628 9.36782e-19)
(0.288909 1.50047 0)
(0.181439 1.47043 -6.04527e-19)
(0.0722887 1.62351 1.39512e-18)
(0.157146 1.63703 1.84329e-20)
(0.0333856 1.56902 -1.80986e-18)
(0.635985 1.40924 1.59988e-18)
(0.466466 1.45188 0)
(1.01356 0.0947439 7.33339e-20)
(1.00157 -0.0935746 -6.43357e-20)
(0.966377 -0.110179 -1.15055e-18)
(1.01652 0.0086202 1.12995e-18)
(0.992397 0.0580049 0)
(0.797248 1.59642 0)
(0.785759 1.59246 0)
(0.911295 1.3254 0)
(0.638449 1.40618 0)
(0.865304 1.54424 -2.91857e-21)
(0.830681 1.5244 0)
(0.581056 1.48966 1.34019e-20)
(0.463279 1.49461 0)
(0.568978 1.50045 -1.12961e-18)
(0.56053 1.47525 0)
(0.826534 0.118924 0)
(0.78676 0.119642 3.70176e-19)
(0.888211 0.0982185 2.254e-18)
(0.844019 0.0912574 -8.03435e-19)
(0.841561 0.116494 -2.55439e-18)
(1.04998 0.169495 -2.65309e-18)
(0.806217 0.347157 -6.18312e-20)
(0.877867 0.229523 1.98362e-18)
(0.924924 0.125411 2.00616e-18)
(0.858539 0.179381 -3.09666e-18)
(0.872445 0.260568 3.6941e-19)
(0.744184 0.297894 -9.23851e-19)
(0.826401 0.259101 0)
(0.949085 0.124772 -1.48568e-18)
(0.983137 0.187671 0)
(0.968821 0.166124 0)
(1.01469 0.178986 8.62854e-19)
(0.962949 0.274176 -1.49975e-20)
(0.90736 0.144779 -1.39354e-18)
(0.983608 0.129981 0)
(0.987862 0.0581178 1.69297e-18)
(0.968357 -0.0364826 2.08975e-18)
(1.04222 0.0588155 -1.59866e-18)
(0.996299 0.0980608 -1.41047e-18)
(0.941675 -0.0187459 -2.19204e-18)
(0.910984 0.187939 0)
(0.958728 0.0085982 0)
(0.907728 0.0913728 -1.30126e-18)
(0.894784 -0.0159235 4.87344e-19)
(1.01154 0.119154 1.91215e-18)
(1.03658 0.111965 -2.44915e-18)
(0.95452 0.117306 2.1376e-18)
(0.922103 0.167233 0)
(0.996173 0.126343 0)
(0.941455 0.0755802 -9.75387e-19)
(0.975983 0.0756295 -1.5655e-18)
(0.643128 1.51974 5.56089e-19)
(0.611434 1.56045 -6.03778e-19)
(0.759046 1.57705 -8.63026e-19)
(0.737259 1.76449 2.18511e-19)
(0.907554 1.60806 -2.13062e-18)
(1.07165 1.76198 5.55459e-19)
(1.07091 1.64248 -5.10681e-20)
(0.872606 1.70627 -9.02412e-19)
(0.814476 1.67107 1.34122e-18)
(0.867967 2.05922 2.54551e-19)
(1.01426 1.98899 -2.46791e-19)
(1.03265 2.00529 0)
(0.387229 1.32646 -1.24442e-19)
(-0.812499 1.74177 4.40944e-19)
(-0.292699 0.253489 5.83956e-19)
(-0.409794 0.60197 -9.16197e-20)
(0.351596 0.372952 1.07233e-18)
(0.298888 0.34779 -1.94152e-18)
(0.263046 0.370469 1.54032e-18)
(0.241291 0.283654 -3.91287e-19)
(0.346516 0.227527 9.82942e-19)
(0.742658 0.281534 2.32215e-18)
(0.649661 0.324994 0)
(0.664407 0.26292 6.64649e-21)
(0.521827 0.481419 7.26811e-19)
(0.395129 0.530525 -2.62259e-18)
(0.360129 0.422191 -4.96445e-20)
(0.424542 0.394566 0)
(0.46113 1.00158 1.0287e-18)
(0.717814 0.940022 1.15261e-18)
(0.61793 1.0836 -1.34777e-18)
(0.703492 0.95083 -5.1197e-19)
(0.912715 0.920274 -1.67567e-19)
(0.907422 1.05057 1.72187e-19)
(0.722849 0.673006 -1.8422e-18)
(0.763242 0.929408 4.8187e-19)
(0.962289 0.83371 0)
(0.869575 0.769788 -6.74941e-19)
(0.850999 0.323299 6.22379e-19)
(1.00467 0.376598 1.09753e-18)
(1.056 0.256149 1.0612e-18)
(0.881452 0.424588 -1.22978e-18)
(1.04467 0.362165 0)
(1.01452 0.369353 0)
(0.73673 0.424477 -1.60267e-20)
(0.767893 0.258216 0)
(0.686074 0.291416 9.2997e-19)
(0.883044 0.255527 -2.79163e-20)
(0.865636 0.494192 4.99752e-18)
(0.740704 0.536205 1.40052e-18)
(0.761175 0.502047 -1.32882e-18)
(0.71262 0.408116 -1.40544e-18)
(0.661979 0.521611 8.07921e-19)
(0.613174 0.411598 -7.78026e-19)
(0.995197 0.0933957 1.84019e-18)
(0.962143 -0.0799216 0)
(0.988577 -0.0119744 1.24042e-18)
(0.904696 0.0989895 1.00262e-20)
(1.02838 -0.0244911 1.31682e-18)
(0.970621 0.0509233 -2.79026e-18)
(1.03232 -0.00743156 0)
(0.975359 -0.0373947 -5.89356e-19)
(1.00288 0.066221 1.50274e-18)
(0.964944 0.00730484 -7.87668e-19)
(0.946522 -0.0877514 5.61406e-19)
(-0.060368 1.79059 0)
(0.190902 1.71218 0)
(0.0296846 1.78172 0)
(-0.00317666 1.82644 0)
(0.0575481 1.79571 6.14537e-19)
(0.0674924 1.7817 -1.72479e-19)
(0.0721961 1.69234 -1.92062e-19)
(0.140323 1.70206 1.90913e-19)
(-0.0531489 1.74323 -5.46097e-19)
(0.0546027 1.71474 4.02381e-19)
(0.0176057 1.80343 1.8113e-20)
(0.0282847 1.76086 5.45193e-19)
(0.0017754 1.74956 -6.72298e-20)
(0.141262 1.77748 6.02761e-20)
(0.0119123 1.68833 -4.64346e-19)
(0.0981621 1.68185 0)
(0.116559 1.7137 2.58114e-19)
(0.0139758 1.77952 1.64011e-19)
(0.142049 1.63987 -2.35831e-19)
(0.140956 1.62158 0)
(0.156289 1.58347 -9.83375e-19)
(0.150029 1.60553 7.3231e-19)
(0.176165 1.64306 -8.24802e-19)
(0.189825 1.67033 4.10279e-19)
(0.0129502 1.52169 0)
(0.0461513 1.67239 -3.79975e-19)
(-0.010404 1.65989 -5.88751e-19)
(-0.0334169 1.64933 0)
(0.0478598 1.80323 1.01518e-20)
(0.0322183 1.76804 1.94084e-19)
(-0.00274875 1.80115 3.55363e-20)
(0.0437913 1.72884 -5.72299e-19)
(-0.00986655 1.74905 1.55704e-19)
(-0.0471664 1.65994 2.11977e-19)
(0.0466851 1.79954 0)
(-0.0283676 1.84673 0)
(0.0025614 1.7642 1.89888e-19)
(0.0527091 1.74806 -6.25717e-20)
(-0.0381213 1.80533 0)
(-0.0317015 1.78551 1.30615e-19)
(0.0609948 1.74447 -2.68305e-19)
(0.952443 0.165456 0)
(1.06006 0.120689 -1.99499e-19)
(0.971941 0.0502639 -1.36927e-18)
(0.913073 0.0114965 0)
(0.950436 -0.08189 0)
(1.05336 -0.0865331 -5.06573e-20)
(0.966855 -0.103521 2.30643e-18)
(0.971474 -0.0117543 2.73539e-18)
(0.986165 0.00154251 0)
(1.0089 -0.00852466 0)
(0.971114 -0.0296331 1.37538e-18)
(0.975085 0.0349866 0)
(0.959627 0.0783179 0)
(-0.0988767 1.81671 0)
(-0.0229511 1.65783 6.02183e-20)
(-0.0354525 1.67729 5.49131e-20)
(0.00473624 1.78269 0)
(0.142687 1.75277 1.36378e-19)
(0.0853537 1.76948 -3.08717e-20)
(0.0239153 1.75005 0)
(0.428364 1.6302 0)
(0.354823 1.56842 -1.04948e-18)
(0.371424 1.5556 0)
(0.450346 1.77366 5.49071e-19)
(0.539901 1.76439 0)
(0.523081 1.78495 -4.62213e-19)
(0.57086 1.51063 -3.52215e-20)
(0.575116 1.42403 -2.07155e-18)
(0.590216 1.42247 2.44802e-18)
(0.469488 1.42103 4.33194e-19)
(0.4898 1.45913 0)
(0.566805 1.48221 0)
(0.630098 1.43017 0)
(0.495961 1.39124 -1.64442e-18)
(0.39783 1.51945 -1.02776e-18)
(0.354722 1.47072 -2.31113e-19)
(0.45639 1.51815 1.80715e-19)
(0.367535 1.46378 0)
(0.469027 1.4492 0)
(0.435573 1.42697 -4.27189e-19)
(0.39292 1.42679 0)
(0.472468 1.49919 0)
(0.535657 1.40858 -1.28586e-18)
(0.446912 1.27119 -8.87552e-20)
(0.718417 1.51157 0)
(0.641777 1.57548 2.06186e-18)
(0.685855 1.2864 -4.29385e-19)
(0.912801 1.18469 0)
(0.760799 1.09695 7.34943e-19)
(0.406243 1.48736 0)
(0.446686 1.25856 0)
(0.741066 1.50499 -8.67278e-19)
(0.711023 1.5498 -5.98336e-19)
(0.701679 1.53176 9.9472e-19)
(0.708274 1.54248 -2.83696e-19)
(0.725072 1.46694 0)
(0.690222 1.49073 4.4614e-19)
(0.769554 1.50195 -7.0745e-19)
(0.765886 1.45585 -1.88044e-20)
(0.579345 1.52462 0)
(0.57856 1.57615 -4.87818e-19)
(0.636147 1.5384 0)
(0.808269 0.17183 0)
(0.804167 0.182552 0)
(0.7296 0.206377 0)
(0.789252 0.255115 -1.45456e-18)
(0.753479 0.207382 8.01625e-19)
(0.958849 -0.0258555 -9.97066e-19)
(0.899609 0.0460626 0)
(0.880041 0.0273885 4.30496e-19)
(0.839883 0.122382 1.71442e-18)
(0.829497 0.025279 -1.10918e-18)
(0.834311 2.31068 1.0605e-19)
(0.852478 2.13625 0)
(0.790412 2.38976 2.03749e-19)
(0.151789 2.50217 -1.76214e-19)
(0.328503 2.08526 -7.02291e-19)
(0.162897 1.50729 1.48054e-18)
(0.244117 1.55002 0)
(-0.145933 0.830093 -2.4347e-19)
(-0.0278973 1.01909 -1.83794e-18)
(-0.234038 0.497017 -3.21168e-19)
(0.125233 0.48515 3.7614e-19)
(0.391935 0.533128 9.42789e-19)
(0.550666 0.535496 0)
(0.242534 0.775479 0)
(0.152602 0.72076 0)
(0.84279 0.729827 5.37976e-19)
(0.780768 0.556017 -1.34227e-18)
(0.868757 0.633701 1.13119e-18)
(0.820521 0.492443 -1.04542e-18)
(1.01784 0.614113 0)
(0.958796 0.650122 -3.44595e-19)
(0.756462 0.342778 -1.8701e-18)
(0.729749 0.306561 2.99736e-18)
(0.616752 0.4466 1.47919e-18)
(0.653909 0.384609 -1.41587e-18)
(0.75006 0.333595 -1.10281e-18)
(0.715093 0.328957 1.3969e-18)
(1.03052 -0.00463971 -1.39771e-18)
(1.05514 0.0207798 2.90892e-18)
(1.04601 0.0694595 1.76971e-18)
(1.0548 -0.058121 -2.11949e-18)
(0.852125 0.00426383 0)
(0.833303 -0.0130369 -3.64215e-18)
(0.100339 1.68958 1.19105e-19)
(-0.00961055 1.73443 0)
(0.118399 1.77036 7.28079e-19)
(0.0408234 1.73061 -6.50926e-19)
(0.0552803 1.71936 3.58952e-19)
(0.0780985 1.79199 0)
(0.0814978 1.82673 0)
(0.0406553 1.71358 -6.92498e-20)
(-0.000943746 1.58993 6.19351e-20)
(0.0756205 1.61113 1.14878e-20)
(-0.168813 1.78903 -1.27714e-19)
(0.0246 1.71694 -1.60553e-19)
(0.531173 1.59739 -1.41157e-18)
(0.573456 1.61328 -1.60262e-18)
(0.467689 1.69837 -6.87928e-19)
(0.607158 1.62011 6.81478e-20)
(0.621158 1.69123 0)
(0.592978 1.76885 -4.31016e-19)
(0.546371 1.75774 4.35189e-19)
(0.556465 1.70271 6.50487e-19)
(0.61203 1.72308 0)
(0.650202 1.62277 0)
(0.547776 1.45058 1.53859e-18)
(0.253766 1.52146 2.19212e-18)
(0.264656 1.49092 -1.46802e-18)
(0.222133 1.52861 -2.47571e-19)
(0.360559 1.46818 5.25605e-19)
(0.250733 1.42904 -1.23172e-18)
(0.613146 1.4483 -1.36436e-18)
(0.726936 1.46319 0)
(0.627242 1.42285 -1.53627e-18)
(0.682166 1.46847 0)
(0.687573 1.50187 0)
(0.490743 1.84886 -8.80988e-19)
(0.507793 2.00491 -6.75478e-19)
(0.407416 2.04982 8.29907e-19)
(-0.568174 1.52643 0)
(-0.365642 1.45729 -7.28835e-19)
(0.00587408 1.56984 -3.16817e-18)
(0.348247 1.77077 0)
(0.0450073 2.16331 4.94803e-19)
(-0.302687 2.19448 0)
(0.469599 0.901702 -2.15922e-18)
(0.619483 0.932035 2.87812e-18)
(0.664823 0.738046 1.65916e-18)
(0.331904 0.738341 2.56763e-19)
(0.439673 0.7104 -1.01789e-18)
(0.56619 1.80821 4.96585e-19)
(0.635215 1.7081 -1.17321e-18)
(0.524088 1.83805 1.48221e-18)
(0.522449 1.7342 -9.97799e-19)
(0.603493 1.58977 -1.40964e-18)
(0.635843 1.70581 -1.14587e-19)
(0.666436 1.66131 1.18289e-18)
(0.53429 1.68769 8.83604e-20)
(0.53689 1.57211 1.78391e-18)
)
;

boundaryField
{
    wall-4
    {
        type            noSlip;
    }
    velocity-inlet-5
    {
        type            fixedValue;
        value           uniform (1 0 0);
    }
    velocity-inlet-6
    {
        type            fixedValue;
        value           uniform (0 3 0);
    }
    pressure-outlet-7
    {
        type            zeroGradient;
    }
    wall-8
    {
        type            noSlip;
    }
    frontAndBackPlanes
    {
        type            empty;
    }
}


// ************************************************************************* //
