/*--------------------------------*- C++ -*----------------------------------*\
| =========                 |                                                 |
| \\      /  F ield         | OpenFOAM: The Open Source CFD Toolbox           |
|  \\    /   O peration     | Version:  2412                                  |
|   \\  /    A nd           | Website:  www.openfoam.com                      |
|    \\/     M anipulation  |                                                 |
\*---------------------------------------------------------------------------*/
FoamFile
{
    version     2.0;
    format      ascii;
    arch        "LSB;label=32;scalar=64";
    class       volScalarField;
    location    "8";
    object      p;
}
// * * * * * * * * * * * * * * * * * * * * * * * * * * * * * * * * * * * * * //

dimensions      [0 2 -2 0 0 0 0];

internalField   nonuniform List<scalar> 
918
(
0.241226
0.937274
0.00502138
0.238827
0.00137299
0.90439
-0.754393
0.437804
0.220434
-0.12157
0.0273403
0.208724
0.765235
0.530652
-1.39846
0.0196616
0.379177
-0.650377
0.213171
0.00987041
0.508831
0.229002
0.231375
0.222348
0.275954
0.513202
0.645912
-0.00242704
-0.00258042
-0.0023279
0.00235145
0.00027174
0.00952204
0.787954
0.839216
0.862016
0.192489
-0.105477
-0.586523
-0.691738
-0.638547
-0.792052
0.421599
0.427616
-0.472846
0.437554
0.45183
0.212529
0.219216
0.220316
0.224504
0.220722
0.222878
0.29111
-0.125082
-0.178513
-0.0616769
-0.0397469
0.092143
0.0291917
0.0284778
0.0254282
0.029132
0.152984
0.205837
0.206414
0.211908
0.22088
0.876856
0.848545
0.874761
0.789207
0.805417
0.7429
0.715338
0.55059
0.572451
0.516677
0.502941
-1.84236
-2.82179
-0.796529
-0.55041
0.00218252
0.0248336
0.0300362
0.360359
0.368093
0.373597
0.391628
0.744267
-0.600999
-0.784778
0.215187
0.211342
0.226945
0.226921
0.221904
0.221722
0.0169492
0.0220048
-0.00115728
0.00861248
0.0065414
0.496232
0.497394
0.222147
0.217868
0.23125
0.251924
0.237892
-0.0029774
0.286157
0.317956
0.332957
0.498819
0.495526
0.502813
0.618915
0.582173
0.68368
0.70589
0.00572902
-5.983e-05
0.021271
0.0103359
0.0161303
0.189936
0.184423
0.204103
0.196704
0.196941
-0.10053
-0.189272
-0.138204
-0.216832
-0.521484
-0.6112
-0.628216
-0.64201
-0.802382
0.504945
0.406885
0.413415
-0.456346
-0.387422
-0.538027
-0.329764
-0.409162
0.198983
0.206259
0.202999
0.217277
0.214951
0.216994
0.224054
0.220728
0.222237
0.321962
0.387026
0.256466
0.2346
-0.387798
-0.215324
-0.405586
-0.0191529
-0.0127716
0.105728
0.113082
0.0812184
0.0748048
0.000584715
0.0237439
0.0105497
0.029165
0.0317241
0.141194
0.132698
0.162225
0.167474
0.200187
0.199947
0.202904
0.199537
0.667481
0.688244
0.695984
0.669902
-3.84687
-6.70172
-0.215601
-0.0783949
0.00534249
0.00395084
0.00308776
0.00346244
0.00322064
0.00243675
0.046886
0.0470621
0.0349201
0.0440882
0.346674
0.355382
0.732498
0.798312
0.663727
0.655795
0.205454
0.207976
0.211254
0.206581
0.0280704
0.0248262
0.0244291
0.454721
0.477378
0.47414
-0.0425779
-0.132116
0.0440767
0.0680028
0.337744
0.320442
0.336869
0.394893
0.431617
0.712712
0.732266
0.729874
0.739495
0.782691
0.798743
0.764582
0.171994
0.178997
0.17635
0.204521
0.203959
0.201811
0.198217
0.199
0.199138
-0.324601
-0.709033
-0.157531
-0.321324
-0.340422
-0.34568
0.562427
0.657855
0.385146
0.39676
0.402963
-0.259183
-0.338247
0.203503
0.182568
0.0929037
0.124024
0.108011
0.637182
0.596941
0.647391
0.620202
0.58173
0.607814
-0.661276
-2.22162
-1.30509
0.274944
0.08549
0.175913
0.069296
0.0521487
0.0604429
0.791314
0.836232
0.427864
0.55384
0.533251
0.468766
0.499419
0.556341
0.482624
0.51741
0.551171
0.530582
0.290196
-0.00618279
0.204433
0.699961
0.790254
-0.152419
-0.198755
-0.263684
0.120801
0.154389
0.135162
0.810966
0.791995
0.844265
0.217466
0.22031
0.0104536
0.0138962
0.223019
0.222471
0.00831697
0.00681504
0.153674
-1.07357
-0.172198
0.209363
0.20501
0.217704
-0.0678148
0.280229
0.0282019
0.0932869
0.0657589
0.206931
0.159066
0.124216
0.00410227
0.0267959
0.0191179
-0.320931
0.214281
0.213316
0.217208
0.219233
0.218865
0.00579286
0.00938374
0.00766445
0.0175304
0.011481
0.0117354
0.188753
0.19863
-0.388657
0.218029
0.220185
0.219745
0.210722
0.218674
0.214854
0.0200936
0.0113682
0.0187991
-0.0416336
0.0657964
0.39148
0.503072
0.335129
0.131443
-0.0957603
0.301611
0.365278
0.26925
0.42889
0.386399
0.423099
-0.108878
-0.248219
-0.0967551
-0.143423
0.208016
0.206802
0.202734
0.198191
0.216522
0.213055
0.217118
0.212135
0.214662
0.216546
-0.0240674
-0.0427153
-0.0817654
-0.156015
0.304965
0.387478
0.237614
0.240106
0.149212
0.0357076
0.0295414
0.0299176
0.0294083
0.0691363
0.070574
0.0796946
0.0811886
0.0564419
0.0538134
0.0671384
0.0662438
0.0720361
0.202395
0.201211
0.205988
0.210558
0.16552
0.171059
0.140646
0.158994
0.1446
0.0950427
0.121765
0.102562
0.0122806
0.00845292
0.00657795
0.0303286
0.0342492
0.0185727
0.0143899
0.0198324
0.0143525
0.0123215
0.0222186
0.0248427
-0.255054
-0.397069
0.724479
0.586372
0.356972
0.210576
0.212914
0.20952
0.211414
0.214058
0.219326
0.217487
0.213304
0.199942
0.200988
0.198474
0.197388
-0.356156
-0.448258
-0.320155
-0.388265
-0.297918
0.317801
0.0740238
0.0175091
0.0068164
0.20874
0.56412
0.37456
0.4565
0.476217
-0.57059
-0.20837
-0.525658
0.0741508
-0.0294355
0.402119
0.452599
0.47421
0.42201
0.372055
-0.442623
0.244636
-0.330839
-0.29283
-0.135181
-0.23148
0.459315
0.368527
0.377528
0.411803
0.43433
0.377758
0.35545
0.354645
0.399479
0.399387
0.183844
-0.0153817
-0.0601979
-0.0991613
0.35426
0.226212
0.286165
0.200698
0.20224
0.206075
0.203915
0.191491
0.198023
0.196504
0.197263
0.200135
0.209239
0.207215
0.205892
0.208214
-0.0245355
-0.0157033
-0.0282933
-0.207301
-0.177895
-0.265594
-0.0961401
0.139516
0.113746
0.336932
0.40807
0.0835786
-0.0854275
-0.0533392
0.0258663
0.178207
0.1776
0.124179
0.165184
0.181453
0.153022
0.210667
0.197716
0.0503281
0.0617666
0.0432809
0.0409793
0.100786
0.119576
0.116491
0.0556747
0.0564012
0.0352458
0.0319798
0.0883068
0.0567072
0.0704155
0.0738512
0.0299701
0.0322315
0.035362
0.0474779
0.0462699
0.0500033
0.198236
0.198802
0.199096
0.213974
0.222346
0.236863
0.20631
0.185077
0.176042
0.179155
0.159684
0.169849
0.165462
0.172332
0.188185
0.195801
0.195728
0.196845
0.183245
0.184757
0.176685
0.17748
0.159321
0.139821
0.130191
0.0238795
0.0141708
0.0196869
0.0194264
0.0165439
0.0184683
0.049432
0.0407472
0.045508
0.0402918
0.046031
0.0230564
0.0214048
-0.111154
0.0246921
-0.36794
-0.324767
-0.45142
0.702044
0.757774
0.588377
0.503335
0.527601
0.632782
0.663594
0.419499
0.503641
0.50304
0.406708
0.725137
0.211299
0.21105
0.207653
0.205252
0.207782
-0.347795
-0.299081
-0.244522
-0.208645
-0.30522
-0.243936
-0.268959
0.271681
0.327284
0.189077
0.310696
0.326145
0.273232
0.299993
0.304164
0.136098
0.202656
0.258297
0.215432
0.253204
0.275968
0.245728
0.272178
0.216102
0.178858
0.178935
0.124363
0.145686
0.123711
0.101495
0.198548
0.177
0.187149
0.178129
0.201973
0.225719
0.219327
0.235916
0.255764
0.186037
0.151998
0.160055
0.182086
0.149545
0.162401
0.173557
-0.856536
-0.880179
-0.46144
-0.57144
-0.431086
-0.382897
-0.419227
-0.518267
-0.34244
-0.844241
-0.773202
-1.38573
0.166672
0.618401
0.426217
0.352511
0.434302
0.414837
0.419562
0.450567
0.453312
0.34395
0.361755
0.365351
0.324191
0.341081
0.396949
0.382395
0.193892
0.0488281
0.0136102
0.00389266
-0.110334
-0.0785454
0.133418
0.0536233
-0.00998174
-0.00145164
0.170765
0.0647671
0.132639
0.158974
0.0945135
0.0597943
0.247148
0.308845
0.294505
0.27514
0.194591
0.2046
0.237991
0.277599
0.299283
0.331814
0.198307
0.204866
0.205185
0.202311
0.200248
0.20173
0.201986
0.203285
0.205227
0.205498
0.20543
0.0263979
0.0359949
0.0028421
0.00998318
0.0425931
0.0245134
0.069392
0.0446823
0.0455662
0.0481464
0.0296052
0.00458754
0.0195162
0.0365788
0.173779
0.207139
0.196525
0.14584
0.260801
0.366642
0.424271
0.374064
0.226284
0.248423
0.283991
0.0974696
0.0967296
0.0871754
0.104341
0.108545
0.0435335
0.0406265
0.0432363
0.0479028
0.0487366
0.0376194
0.0277594
0.0288692
0.0315827
0.0321632
0.0327891
0.18684
0.181601
0.181974
0.176146
0.175739
0.188694
0.190574
0.191682
0.195062
0.196448
0.189284
0.194684
0.196107
0.0353045
0.0273858
0.0314931
0.0301378
0.0294613
0.0242074
0.0242697
0.200985
0.124993
0.23601
0.0199277
-0.212629
-0.0923863
0.234092
0.29734
0.0583028
0.596686
0.480008
0.228438
0.319559
0.575183
0.381952
0.618643
0.517553
0.720385
0.664994
0.746205
0.614079
-0.339838
-0.0536911
0.0381285
-0.592404
-0.320313
-0.0694338
-0.158399
-0.1027
-0.16171
-0.0475629
-0.401706
-0.51394
-0.733864
-0.486479
-0.309505
-0.250879
-0.338727
-0.391046
-0.406818
-0.816658
-0.517774
0.304409
0.323707
0.340186
0.310108
0.336527
0.262125
0.257267
0.27328
0.284443
0.273878
-1.0724
-0.765285
-1.68462
-0.938704
-0.5128
0.264965
0.165155
0.495616
0.364074
0.434459
0.409921
0.372394
0.331164
0.332962
0.372255
0.0537724
0.160877
0.132208
0.150848
0.0586689
-0.00755722
0.287361
0.276294
0.317036
0.337099
0.300978
0.336341
0.196831
0.195486
0.196079
0.193661
0.189214
0.189246
0.116115
0.0816145
0.132523
0.115392
0.0802051
0.0655538
0.0419324
0.040073
0.0372618
0.0358091
0.0375496
0.0414319
-0.0869557
0.0216009
-0.0376543
0.0683579
-0.325842
-0.20405
-0.28588
-0.1589
-0.171492
-0.298715
0.458047
0.645498
0.550289
0.621588
0.50428
0.506781
-0.0667538
-0.331037
-0.289078
-0.126256
0.0851724
-0.000764793
-0.505335
-0.396011
0.516185
0.565669
0.422658
0.285116
0.0132544
0.170737
0.229374
0.164232
0.212902
0.286519
0.285853
-0.345424
-0.4008
-0.0334759
0.137977
-0.667247
-0.32881
-0.452286
-0.108659
-0.333365
)
;

boundaryField
{
    wall-4
    {
        type            zeroGradient;
    }
    velocity-inlet-5
    {
        type            zeroGradient;
    }
    velocity-inlet-6
    {
        type            zeroGradient;
    }
    pressure-outlet-7
    {
        type            fixedValue;
        value           uniform 0;
    }
    wall-8
    {
        type            zeroGradient;
    }
    frontAndBackPlanes
    {
        type            empty;
    }
}


// ************************************************************************* //
