/*--------------------------------*- C++ -*----------------------------------*\
| =========                 |                                                 |
| \\      /  F ield         | OpenFOAM: The Open Source CFD Toolbox           |
|  \\    /   O peration     | Version:  2412                                  |
|   \\  /    A nd           | Website:  www.openfoam.com                      |
|    \\/     M anipulation  |                                                 |
\*---------------------------------------------------------------------------*/
FoamFile
{
    version     2.0;
    format      ascii;
    arch        "LSB;label=32;scalar=64";
    class       surfaceScalarField;
    location    "8";
    object      phi;
}
// * * * * * * * * * * * * * * * * * * * * * * * * * * * * * * * * * * * * * //

dimensions      [0 3 -1 0 0 0 0];

oriented        oriented;

internalField   nonuniform List<scalar> 
1300
(
3.75095
5.62643
-6.37424
3.75095
-6.23566
5.62643
-4.67264
4.67264
-1.55628
1.55628
1.87846
1.87249
-5.19276
5.19276
-5.25604
5.25604
-2.94428
2.94428
-5.24665
5.24665
-5.06909
5.06909
4.66509
-4.66509
-5.09678
5.09678
-2.0255
2.0255
-5.63617
5.63617
3.1684
-3.1684
-5.33074
5.33074
-0.649624
0.649624
-0.546443
4.2974
3.20451
3.20451
-2.71805
2.71805
-4.86252
4.86252
6.21863
-6.21863
9.63959
-9.63959
-3.26535
-3.35586
1.33336
-8.08522
-4.9023
-4.9023
-8.4405
8.4405
-2.81407
2.81236
3.06116
-3.06116
-1.40019
1.40019
-4.50138
-0.171262
-4.50138
4.94504
-0.2724
4.94504
-1.72748
0.171198
-1.72748
4.10875
-4.10875
1.37873
0.177553
1.37873
3.03394
-3.03394
-1.8788
3.75726
1.87215
-1.86877
6.16617
-1.88218
3.75467
-4.79591
4.79591
-5.34509
0.152326
-5.34509
5.12022
0.0725445
5.12022
-5.29839
5.29839
-5.22054
-0.0355031
-5.22054
5.29099
-0.0349453
5.29099
3.14102
-3.14102
-2.98293
0.0386497
-2.98293
2.88279
0.0614943
2.88279
0.353634
5.2728
-5.98006
8.79242
-5.2728
0.0261438
5.2095
0.037156
5.2095
-5.10626
0.0371679
-5.10626
5.0129
0.0561919
5.0129
4.77144
-0.106351
4.77144
-4.77276
0.107671
-4.77276
-3.29762
-3.31663
-5.16839
0.0716163
-5.16839
-2.05725
0.0317492
-2.05725
2.02341
0.00208884
2.02341
-3.81
3.81
-5.65848
0.0223049
-5.65848
3.11524
0.0531592
3.11524
1.86942
1.88153
5.62037
-5.62037
2.45197
-5.31982
-0.0109118
-5.31982
-5.35006
-4.28954
5.35006
-0.0193204
-0.941055
0.291431
-0.941055
3.15369
0.0508193
3.15369
2.81611
0.0666804
-2.81611
0.0980599
3.53562
-3.53562
2.08919
0.628862
2.08919
-5.56631
5.56631
4.95424
0.0586571
-4.95424
0.0917256
6.15728
0.0613522
6.15728
-6.19903
-0.0196017
-6.19903
3.34156
-6.69742
-3.30405
5.00053
0.096249
-5.00053
0.0982269
3.07866
-0.017498
3.07866
-3.01888
3.01888
-3.04796
-0.0132016
-3.04796
-2.07627
0.676085
-2.07627
0.840157
0.560032
0.840157
-4.36574
-0.135641
-4.36574
-5.32405
-0.334431
5.32405
-0.379004
1.56731
-1.56731
-1.85643
0.128954
-1.85643
-4.21686
-0.148884
4.21686
-0.108103
-4.03057
-0.0781864
-4.03057
-3.03869
-0.00927128
3.03869
-0.00475051
3.08275
0.0709422
-3.08275
0.0488087
-1.87017
3.75171
-1.88078
3.75293
-4.63688
-0.159025
-4.63688
4.96717
-0.171266
4.96717
5.54116
0.0950127
-5.54116
0.196072
5.12202
-0.00179734
5.12202
-5.28071
-0.0176883
-5.28071
5.31482
-0.0164231
5.31482
5.18059
-0.0585706
-5.18059
-0.0399511
5.31306
-0.0220783
5.31306
3.18234
-0.0413159
3.18234
-3.11453
-0.0264914
-3.11453
3.00621
-3.00621
2.98979
0.0164231
-2.98979
0.0068562
-11.1327
11.1131
-0.035479
-11.0972
5.17402
5.17402
4.25441
0.517036
4.25441
-4.99242
0.219652
-4.99242
3.30804
-6.61209
3.27014
-6.56777
3.35766
-11.4429
3.33468
-6.6513
5.25974
-5.25974
5.21426
0.0454815
-5.21426
0.0458647
-2.05548
-0.00176806
-2.05548
-3.59061
-0.219394
-3.59061
4.09334
-0.28334
4.09334
-3.00679
3.00679
-3.04984
0.0430454
3.04984
0.0654071
5.31196
0.00110091
-5.31196
-0.00785979
1.17058
0.208153
-1.17058
0.229521
3.72245
-0.186834
3.72245
-3.34141
-0.194208
-3.34141
-2.0621
0.00662074
2.0621
0.0270821
-5.81551
0.249201
-5.81551
-11.1899
0.0927256
-11.1528
-6.1063
-6.1063
2.3342
11.1266
-3.09986
-0.0146776
3.09986
-0.0211947
3.00078
0.00600603
-3.00078
-0.0180956
-3.0229
0.0166904
3.0229
-0.00402225
-2.59596
0.519686
-2.59596
-0.602033
0.602033
-0.529072
-0.0729604
0.529072
0.311084
2.09696
-0.529648
2.09696
1.96309
0.0603275
-1.96309
0.106652
-3.9371
-0.0934685
-3.9371
5.15329
-0.186118
5.15329
-3.23195
-0.109459
3.23195
-0.0496109
-0.0339455
11.147
-5.14007
0.0338107
5.14007
-11.2084
11.2422
-3.31304
0.717084
3.31304
0.941363
5.28628
0.28003
-5.28628
0.293863
5.29925
0.0155664
-5.29925
0.039511
-3.33047
-0.260135
-3.33047
-4.3838
-0.253079
4.3838
-0.290459
-11.474
-0.203262
11.6773
-11.4179
6.01877
0.138504
-6.01877
11.3807
-1.04799
-0.519325
1.04799
-0.445955
2.50931
-0.41235
2.50931
3.8705
-0.148046
-3.8705
-0.0665997
-5.26656
-0.0141433
5.26656
-0.113272
-2.96061
-0.369867
2.96061
-0.451297
-4.26477
4.31559
1.9014
-3.32727
-3.37015
-7.61681
1.83997
1.91174
4.29194
-7.04344
-4.39944
-6.94521
7.26526
-6.97139
-9.21755
9.11119
7.40442
-7.4826
-5.75775
5.82315
6.35432
-6.35907
1.88156
1.8757
10.6196
-10.4672
-10.4085
10.2495
10.2305
-10.266
10.688
-10.7057
-12.3203
12.3359
-5.70657
5.74522
-6.61166
6.58517
-6.73824
6.68863
-3.35719
-3.21058
9.00062
-8.929
11.7348
-11.7457
-10.8604
10.8828
3.34496
0.970626
3.4159
-1.88542
3.76699
-1.86925
3.77065
3.27882
-6.63601
3.33327
-6.70342
6.0362
5.69856
-6.01688
-1.59992
-5.86469
5.84719
-5.83047
5.82644
8.12146
-8.29272
-1.88838
3.76408
-1.86455
3.77629
-3.40322
-2.35453
3.35006
0.94188
5.55711
3.4435
-5.65336
-1.29185
-7.53022
7.38218
-7.84539
7.65118
-0.445338
5.83087
-5.38553
4.41718
-1.57789
7.40876
5.68737
5.90702
5.86794
-5.58791
1.10345
-6.48898
-6.39726
-2.66118
2.79013
2.63268
-2.45513
5.73464
1.66978
5.62653
-5.40285
-2.07975
-5.49632
3.80864
2.01451
3.85169
4.0404
2.31392
4.03113
3.04548
-3.02629
-0.019189
-3.10143
6.14691
0.737791
-5.45596
-4.51408
6.87457
3.74499
6.94712
-7.1262
-3.34103
-6.93013
-6.31002
-4.09848
-6.5631
6.637
3.61247
6.46573
-7.93624
7.82297
6.80596
3.42452
6.77102
-6.79452
-3.47146
-6.83447
10.4279
-2.69218
-7.73573
-6.90495
-5.41536
6.92137
3.76659
7.48272
4.85316
7.52223
3.57559
6.85232
-7.34218
1.92682
-3.82684
-1.87973
-3.81998
3.70541
2.03981
3.7669
-4.1482
-2.46346
-4.16288
-4.19208
-2.54616
4.2334
2.35177
-4.28998
-3.55541
4.39944
2.28919
2.98352
-7.38296
3.66778
-6.87836
-6.25334
-2.67566
-6.20747
4.03564
2.68585
-6.7215
-2.60037
10.9037
-5.20515
9.30378
-7.30903
-4.43665
-7.31689
-7.6059
-3.25454
-7.94033
-5.87736
5.61723
-5.96507
5.68173
11.0415
-5.33816
-5.70336
-3.8843
-2.47478
3.83549
-0.419583
-3.78107
3.76188
-0.0140787
3.75657
4.72719
4.30761
-3.85675
-1.97372
-3.87484
3.83056
1.99588
3.84725
6.56425
1.55722
6.29185
-5.95822
-2.33451
-6.09386
9.49527
-8.81918
2.94426
-2.93764
5.10044
2.55074
-4.91361
-2.61661
5.94053
-2.9314
-3.00913
-12.2967
10.4957
1.80102
-4.88791
-0.470734
0.17889
-5.46792
-3.74962
5.36025
0.546767
11.0424
7.2928
-5.51291
5.76211
6.1644
6.22306
-0.174198
6.01312
-5.29604
5.54681
-2.44578
-3.10103
4.99846
-5.14735
-1.0954
-5.09718
4.00178
0.479187
1.83858
-1.54715
-2.1693
-0.491883
-2.06264
1.60026
1.03243
1.80841
1.00042
1.78971
-2.86604
0.494222
2.37182
-1.86561
-1.96091
-3.54469
-1.02521
4.5699
5.39657
1.98561
-5.32997
-0.166348
2.82228
-2.82019
-0.824148
-2.72054
1.9453
-2.76944
-3.39816
-1.84757
5.24573
-3.34871
-0.526135
3.3427
0.508987
-3.76434
-2.10035
3.77754
0.253589
-3.067
6.1231
-3.0561
-5.04072
2.55378
3.59313
4.5683
-4.86499
2.47664
2.38835
-1.27187
5.94705
1.00007
5.94525
-9.16485
5.82382
7.53645
3.3463
-7.63146
0.701333
-8.46352
9.65957
-8.24319
-1.41639
5.11162
4.54796
5.31253
5.72899
-4.00148
9.31401
-0.82127
-7.42192
9.28479
-5.93849
5.23787
-11.1764
-10.9669
3.54494
-6.89924
8.52722
-1.62798
-2.48672
-5.44952
9.38595
-0.83009
-8.55586
5.63564
-5.33758
-5.27497
10.6126
-8.02976
8.74643
-2.64959
-6.09684
-6.67472
-4.03093
6.68886
1.13411
-9.86789
11.7947
-3.01557
5.90916
0.861863
5.88708
3.91815
-6.02349
2.10534
4.11161
-6.7612
2.54351
-8.567
-4.7939
9.42381
-4.62991
-7.46957
-6.65701
-0.812557
2.01909
9.77563
-6.87225
5.29677
1.57548
3.31932
0.527932
-3.33574
-0.484243
0.330163
4.42379
-4.75395
4.09706
4.16374
3.27579
1.148
3.8144
2.03279
-3.79321
-0.36967
-4.00925
1.46309
-1.65747
-3.39063
4.85372
-3.86269
0.472055
-2.62335
-3.44842
6.07177
-4.50309
3.04699
3.07611
5.04288
-4.7546
1.30619
-2.34136
-2.41324
2.5565
-4.21398
1.82306
3.03066
4.11224
0.556838
4.75396
4.66984
-7.43982
0.561457
8.11335
-6.8215
1.66788
5.85435
-6.96465
0.30764
-5.89983
1.14795
-6.3531
-5.57354
5.21741
-8.47195
-5.95895
6.63551
-0.343667
-6.25651
-1.68382
-3.89483
-1.98253
-4.2647
-1.81785
-4.14721
-5.81933
-1.25062
-4.56871
4.36661
-4.43372
-2.12937
4.72418
0.957543
-5.91577
5.39645
-5.01034
4.59799
0.056041
3.70584
4.36365
1.88887
-2.43397
4.32285
-4.17348
5.7307
-6.56474
2.39126
3.80849
-6.14299
-2.75625
5.00036
4.49491
5.5604
7.89154
-12.9639
5.07235
-11.1634
10.1161
1.04729
-15.8855
4.72204
-7.99392
2.7253
0.218961
2.72353
0.657654
2.32451
-2.98216
-2.27998
-2.2529
-2.15552
-3.23421
5.38973
1.01758
-3.19385
2.17627
-3.35222
4.3698
-0.0123873
-3.18147
5.18401
-2.8595
5.40297
-3.36461
2.03836
3.08103
5.33699
-2.25596
4.18476
-1.63403
1.66606
-3.92203
-1.56815
-2.95673
4.99654
-3.11504
3.58709
-0.242592
3.82969
-3.88017
0.948771
-0.604377
3.55937
3.65743
4.16258
-3.01458
2.76858
-4.4026
-1.15345
-3.84576
-0.815101
-0.891978
-4.34096
5.23294
6.72093
-7.61291
-5.73536
10.3052
-4.56981
8.02174
-5.51622
-2.50551
-4.42915
-4.39003
3.90947
2.10366
10.1254
0.239187
-5.75541
-5.05685
-4.11549
3.14172
2.4051
-1.98388
3.7849
1.80499
0.0335886
0.627971
1.18044
1.866
-1.23802
0.13719
1.72881
-1.40996
2.11316
0.709124
-2.17349
0.110842
-1.39273
3.33803
0.979086
-2.01151
0.77349
1.06118
-3.50696
4.87448
-2.64782
-2.22666
5.93566
0.897605
-3.54542
4.19957
-3.72038
2.17622
-3.20144
-1.3692
-5.08959
-3.4198
-2.33422
4.51049
-3.05552
5.04112
1.11233
-4.87478
5.98711
-3.32842
1.48084
-3.01483
3.72395
-1.04139
-1.97344
2.6348
2.61093
-2.8235
0.102953
-0.188696
2.17557
-2.36427
-0.593871
-2.45949
-4.57208
4.82567
-2.06468
4.54133
2.25816
-1.89878
6.44011
1.83764
-3.73642
-3.20308
-3.72921
-1.34807
3.22023
-1.00551
-5.82897
-7.10235
5.88754
0.0577171
-9.14516
10.2623
-1.1171
-5.40017
-0.423643
5.53526
-7.51057
0.749367
-4.96706
5.2952
6.29527
6.35298
-8.46963
-0.0862327
-4.85716
1.31509
-6.17226
5.86305
-3.06598
6.61092
-7.20557
5.0762
-6.24803
5.19453
-0.977726
5.57828
-3.47293
2.15746
-6.18839
-5.05428
6.96831
-3.54379
7.83017
-4.05319
11.8834
-7.06876
6.90707
4.97629
-1.37248
-5.9444
-6.85084
5.47836
0.0562252
5.9433
4.84829
-2.8155
4.47862
2.19882
-4.54018
-2.01516
-6.36993
1.82976
-3.29383
-1.85352
3.68328
3.18936
3.71729
1.27004
-3.23305
6.59338
-7.40594
-1.96347
-3.61007
6.76787
-1.28951
4.02188
-7.63195
-2.33122
6.39592
-2.32201
-4.07391
-1.05776
-4.90119
3.77366
-8.67485
4.69829
-6.38212
1.87246
-9.86638
-4.04331
-4.48926
-1.63326
-3.37708
-6.21176
4.5785
-1.48972
3.90673
-7.90951
5.58749
-2.20661
6.78512
-3.39576
-0.868932
3.84706
0.750925
7.53604
1.49491
-4.25115
-2.68501
4.58363
-1.89862
0.456711
-2.84605
1.73757
2.38508
3.55058
-6.38686
0.243865
-4.00729
-3.73103
8.22594
6.57414
13.2951
0.331186
9.75817
-1.53223
10.0894
4.02817
4.33925
-2.67611
7.74846
2.55683
4.94809
-0.841697
2.88006
1.88183
1.91358
0.906614
2.21786
1.43956
3.16664
0.184475
-2.06842
4.6052
-8.72069
-1.15021
-8.20365
0.907545
5.60067
-4.69312
3.6407
-1.2356
1.74208
0.315956
-1.92512
1.60916
-2.78508
-1.89153
-0.162721
-1.52247
2.29596
1.81556
-2.13323
-0.651843
0.280991
-3.70079
2.92045
-2.81749
-0.206561
5.78055
-2.5767
0.21243
-1.09586
-2.24706
-2.73894
2.6281
6.131
0.309109
3.07489
5.13478
3.03443
0.218933
4.42829
-6.05627
-4.13871
-6.1425
-0.279452
5.25581
2.02926
7.74636
7.00555
5.71605
-1.9159
-9.32184
6.80702
0.941439
7.85431
-3.7804
-4.89444
4.85143
0.879267
-4.50776
-1.87435
-6.7688
-5.82736
-0.676954
6.26445
-6.85909
5.99015
4.00762
0.56109
-3.90489
-0.584373
3.97785
0.361399
10.4508
-0.95776
-6.75813
7.71589
-4.64291
3.4927
1.12342
2.66148
2.73258
1.49698
-5.26115
-9.95428
-1.91469
-1.59227
-4.14135
0.428554
-2.24411
6.30127
-2.80857
3.79576
4.90732
6.6494
-2.19049
-5.42242
6.7603
-2.96455
3.68485
)
;

boundaryField
{
    wall-4
    {
        type            calculated;
        value           uniform 0;
    }
    velocity-inlet-5
    {
        type            calculated;
        value           uniform -3.75095;
    }
    velocity-inlet-6
    {
        type            calculated;
        value           uniform -5.62643;
    }
    pressure-outlet-7
    {
        type            calculated;
        value           nonuniform List<scalar> 8(6.37424 6.23566 6.6212 6.75186 6.61425 6.64561 6.57818 6.69233);
    }
    wall-8
    {
        type            calculated;
        value           uniform 0;
    }
    frontAndBackPlanes
    {
        type            empty;
    }
}


// ************************************************************************* //
