/*--------------------------------*- C++ -*----------------------------------*\
| =========                 |                                                 |
| \\      /  F ield         | OpenFOAM: The Open Source CFD Toolbox           |
|  \\    /   O peration     | Version:  2412                                  |
|   \\  /    A nd           | Website:  www.openfoam.com                      |
|    \\/     M anipulation  |                                                 |
\*---------------------------------------------------------------------------*/
FoamFile
{
    version     2.0;
    format      ascii;
    arch        "LSB;label=32;scalar=64";
    class       volVectorField;
    location    "8";
    object      U;
}
// * * * * * * * * * * * * * * * * * * * * * * * * * * * * * * * * * * * * * //

dimensions      [0 1 -1 0 0 0 0];

internalField   nonuniform List<vector> 
918
(
(0.985172 -0.0021882 0)
(0.00501566 2.96625 0)
(-0.00128659 1.69349 0)
(0.978449 0.00382679 0)
(-0.00520712 1.66138 -1.41891e-21)
(-0.00702055 2.9488 -1.92224e-18)
(0.886281 1.20831 6.67301e-19)
(0.522276 0.275117 -9.54895e-21)
(1.00005 -0.00060143 0)
(0.0541944 1.54598 0)
(-0.00906152 1.57227 0)
(0.880317 0.0043084 0)
(0.0108866 2.93056 0)
(0.00127826 2.79562 0)
(-0.014134 3.1507 1.02893e-18)
(0.000305051 1.6056 -2.06045e-20)
(0.644478 0.122689 5.82667e-19)
(0.233606 1.78064 5.16437e-19)
(0.965923 0.0173056 0)
(0.000228475 1.60022 0)
(0.215842 0.315609 -4.97727e-19)
(1.00172 -0.00446605 0)
(1.00059 -0.00837519 0)
(0.976149 -0.00471682 0)
(0.813725 -0.0277673 0)
(0.0116483 2.63997 0)
(-0.0149373 2.91049 6.69522e-19)
(-0.0112941 1.70398 0)
(-0.00492326 1.76739 0)
(-0.00822929 1.71853 0)
(-0.00347645 1.79963 0)
(-0.00453844 1.68198 1.12403e-21)
(0.000446307 1.61284 0)
(-0.0206851 2.98759 -6.74306e-23)
(-0.0167104 3.00534 1.49503e-18)
(0.00210203 3.00026 0)
(0.920466 0.00470957 0)
(0.239172 0.80011 -6.57143e-20)
(0.832552 1.2627 -8.64621e-19)
(0.996051 1.043 8.7227e-19)
(0.703465 1.43433 -1.49687e-19)
(0.763607 1.38846 8.61541e-19)
(0.571197 0.334828 9.31724e-21)
(0.571664 0.238121 0)
(1.20168 0.571111 0)
(0.517499 0.339202 4.34501e-20)
(0.494045 0.26411 -4.5085e-20)
(0.914711 0.000672302 0)
(1.00075 0.0002744 0)
(0.999989 0.000412709 0)
(1.00185 -0.00681642 0)
(1.00112 -0.00225217 0)
(1.00027 -0.000735745 0)
(0.0199347 1.54452 -5.58434e-19)
(0.0389767 1.67048 0)
(0.090048 1.57697 0)
(0.0111384 1.65468 0)
(0.0219358 1.5016 0)
(-0.00113634 1.61192 0)
(-0.0130846 1.65327 0)
(-0.00788644 1.55889 0)
(-0.0115703 1.67331 0)
(-0.00414483 1.58243 0)
(0.942974 0.00673675 0)
(0.936477 0.00681458 0)
(0.893564 -0.00142049 0)
(0.925603 0.0157326 0)
(0.859487 0.0150497 0)
(0.0147418 3.00033 7.04812e-19)
(0.011665 3.00751 0)
(0.00623819 3.00283 0)
(0.0135419 2.99711 7.87527e-24)
(0.00803293 2.95857 -1.04753e-18)
(0.0142807 2.98239 0)
(0.0104587 2.90422 0)
(0.0250708 2.93025 1.42571e-24)
(0.00410892 2.82525 0)
(0.0316209 2.91549 0)
(-0.00842602 2.74713 0)
(0.320491 3.56051 0)
(-0.12804 3.64436 0)
(0.14708 3.24463 9.5753e-19)
(-0.0170096 2.97722 0)
(-0.0017102 1.76269 0)
(-0.00153114 1.6836 2.03292e-20)
(-0.00162447 1.61245 -2.94735e-20)
(0.697507 0.167929 -2.00106e-19)
(0.668116 0.0848231 -1.93624e-19)
(0.683029 0.19359 -6.02351e-19)
(0.644722 0.14799 -4.06364e-19)
(0.234216 1.30221 0)
(0.28663 1.84083 -5.83356e-19)
(0.443038 1.76186 9.49998e-19)
(0.983898 0.0135262 0)
(0.939002 0.0155131 0)
(1.00065 0.000301129 0)
(1.00201 0.00939644 0)
(1.00024 0.0143702 -1.11709e-18)
(0.991087 0.010668 8.51474e-19)
(-0.00334239 1.67495 0)
(0.00122876 1.60061 0)
(-0.00777998 1.72779 0)
(-0.00516268 1.68714 0)
(-0.000931118 1.60523 0)
(0.32313 0.330944 1.59006e-19)
(0.340048 0.286108 0)
(0.994333 -0.00828222 0)
(0.956081 -0.0049069 0)
(0.896609 0.0179267 0)
(0.87496 0.00784695 0)
(0.842746 -0.0111065 0)
(1.05708 0.00310496 0)
(0.839285 0.025879 0)
(0.756428 0.00644876 7.84679e-19)
(-0.0363332 2.86312 3.6505e-19)
(0.043258 2.90833 0)
(0.0557813 2.88399 0)
(-0.00900754 2.70088 0)
(-0.0133033 2.98527 6.16529e-19)
(-0.0183539 2.89569 0)
(-0.015295 2.98753 -1.94718e-18)
(-0.0137718 2.9257 6.71689e-19)
(-0.00391843 1.7872 0)
(0.00153474 1.77324 0)
(0.00168935 1.68706 -5.95812e-22)
(0.00474971 1.68143 0)
(0.0042799 1.60371 0)
(0.964399 0.00589828 0)
(0.924784 0.00705019 0)
(0.904879 -0.0106452 0)
(0.964192 0.000363487 0)
(0.914899 -0.00657614 0)
(0.339748 1.05386 8.06955e-20)
(0.462834 1.17435 0)
(0.161543 0.632057 -1.09963e-20)
(0.17639 0.34335 0)
(0.952771 1.10027 -2.49887e-19)
(1.06526 0.886215 5.28243e-19)
(0.408932 1.76267 0)
(0.563532 1.61296 0)
(0.63606 1.5908 0)
(0.309452 0.410977 -2.49473e-19)
(0.613565 0.29586 0)
(0.600136 0.216047 1.17648e-19)
(1.04052 0.941759 0)
(1.11856 0.784963 0)
(1.13982 0.728235 -4.71954e-19)
(1.18721 0.627959 0)
(1.23975 0.419445 6.49715e-20)
(0.96093 -0.000947566 0)
(0.952836 0.00156515 0)
(0.914024 0.00194435 0)
(0.980244 -0.00634379 0)
(0.95846 -0.00114516 0)
(0.928922 -0.000294766 0)
(0.99968 0.00184593 0)
(1.00084 0.00244485 0)
(0.999687 0.00107077 0)
(0.0085221 1.60848 3.0122e-19)
(0.0439372 1.52808 0)
(0.00955336 1.63251 2.42147e-19)
(0.0183934 1.56973 -4.36236e-19)
(0.123075 1.79264 -4.27274e-19)
(0.0467607 1.71785 0)
(0.180442 1.68497 0)
(-0.0043365 1.6384 0)
(0.000919602 1.51561 0)
(-0.00545874 1.68183 -1.37638e-21)
(-0.00669283 1.61739 0)
(-0.00201463 1.69042 -6.75519e-20)
(0.000279324 1.61878 -5.15404e-21)
(-0.0157545 1.64662 0)
(-0.0115341 1.65158 0)
(-0.00356098 1.54228 0)
(-0.00589481 1.68038 0)
(0.00361588 1.5872 0)
(0.999336 0.0100953 0)
(0.958615 -0.00141405 0)
(0.981971 0.00848309 0)
(0.937278 0.00548894 0)
(0.897649 0.00192352 0)
(0.950944 0.00750913 0)
(0.94507 -0.00198928 0)
(0.894384 -0.000797542 0)
(0.00688092 3.06245 -6.24452e-21)
(0.0164947 3.05897 0)
(0.0148791 2.9699 0)
(0.00894221 2.87639 0)
(0.955572 3.9928 0)
(1.27603 3.33794 1.00872e-18)
(0.0680494 3.06963 0)
(-0.0299603 2.90338 0)
(0.00683751 1.75893 0)
(0.0052481 1.74916 0)
(0.00260099 1.75302 0)
(-0.00181653 1.78793 5.22428e-21)
(0.00244465 1.77682 0)
(-0.00488174 1.7835 0)
(-0.000847664 1.60384 2.2109e-21)
(-0.00096923 1.68374 4.08605e-20)
(2.68747e-05 1.68336 3.01398e-20)
(0.00474949 1.60138 0)
(0.72541 0.124105 2.96064e-19)
(0.680716 0.0456013 -2.86819e-19)
(0.188324 1.4078 0)
(0.301297 1.24166 -2.48069e-19)
(0.138819 1.44577 -7.28223e-19)
(0.165142 1.3645 7.26599e-19)
(0.895655 0.00411977 0)
(0.957797 0.00973378 0)
(0.972034 0.0166965 0)
(0.911803 0.012944 0)
(0.00281553 1.68138 0)
(-0.00204541 1.67763 0)
(0.00339813 1.59269 0)
(0.473689 0.353846 4.01817e-19)
(0.423846 0.34593 -4.93392e-19)
(0.430323 0.264642 0)
(1.17557 0.0819983 -2.26464e-21)
(1.16175 0.0360861 0)
(1.08629 0.0396221 0)
(1.00376 0.00798098 0)
(0.743363 0.0961253 0)
(0.780192 0.0760595 -1.25684e-18)
(0.707001 0.0409323 4.78646e-19)
(0.00933016 2.98154 4.48014e-19)
(-0.0323159 2.86635 4.78575e-20)
(0.00386733 3.04913 -1.34333e-20)
(0.0193997 3.04381 4.84686e-19)
(-0.0152861 2.99609 2.22822e-20)
(-0.0125031 2.94924 -9.05098e-23)
(-0.0172428 3.01207 -4.22249e-19)
(0.0142555 3.02493 3.04115e-19)
(0.00686356 3.03615 -4.76693e-19)
(0.982437 0.00518045 0)
(0.976906 0.0067262 0)
(0.929515 0.00390057 0)
(0.953246 0.00426007 0)
(0.952312 -0.00829675 0)
(0.89698 -0.00719459 0)
(0.955417 0.00336081 0)
(0.953378 -0.00357837 0)
(0.905103 -0.00617831 0)
(0.671677 1.43076 3.21712e-19)
(0.737569 1.55979 0)
(0.0912249 -0.00319612 -1.16292e-20)
(0.3142 0.404648 -3.43497e-19)
(0.221473 0.418147 2.16437e-19)
(0.0835749 0.0573286 -4.53115e-19)
(0.399435 0.880066 1.32598e-18)
(0.390931 0.694341 3.32229e-19)
(0.669433 0.24002 -4.18594e-19)
(0.640985 0.273967 1.07039e-19)
(0.62319 0.192179 2.23947e-19)
(1.22626 0.468249 2.83546e-19)
(1.24986 0.256756 3.0203e-19)
(0.0128976 1.66104 2.01854e-19)
(0.0169328 1.61389 0)
(1.03447 0.0238462 0)
(1.00486 0.0104154 0)
(0.973336 0.00287776 0)
(0.0108854 3.07537 0)
(0.0200916 2.94404 8.33698e-19)
(0.0170031 2.95677 0)
(0.00653991 2.85061 -8.2676e-19)
(0.00542267 3.09195 1.98172e-19)
(0.00741038 3.08169 0)
(0.796222 1.87305 -2.30194e-19)
(1.28539 2.54817 6.41665e-19)
(0.791077 2.0123 -1.47826e-18)
(0.0201471 2.98187 -3.39076e-19)
(0.0343446 3.0007 0)
(-0.0341937 2.87669 0)
(-0.00184305 1.68126 -5.95409e-21)
(-0.00477477 1.68742 -6.23895e-21)
(-0.00124557 1.61231 -7.39259e-21)
(0.253447 1.3419 7.92508e-19)
(0.349049 1.18738 -5.38212e-19)
(0.0335325 1.57632 4.91949e-19)
(0.0823997 1.52079 -6.02212e-19)
(0.0965217 1.45703 6.83897e-20)
(0.00490697 3.11799 -1.05082e-18)
(0.0117777 3.11852 1.14407e-18)
(-0.00911479 2.98092 5.40376e-19)
(-0.00400948 2.97725 -4.82687e-19)
(-0.0217136 2.88106 -5.50367e-19)
(0.00793385 3.09923 -1.4531e-18)
(0.00137075 3.10546 1.45291e-18)
(0.475298 0.741111 0)
(0.463458 0.528722 -1.21282e-19)
(0.201129 0.128987 9.73949e-20)
(0.405008 1.01636 9.67466e-19)
(0.403962 0.872688 -1.48286e-18)
(1.25149 0.171746 -4.84772e-20)
(1.25182 0.309438 0)
(1.2398 0.122845 1.16808e-19)
(-0.0115198 1.69665 -1.63463e-21)
(0.000885404 1.68725 0)
(0.00120458 1.62991 0)
(0.319058 1.25534 -2.76661e-19)
(0.367861 1.13102 -6.62721e-19)
(0.396005 1.05896 1.18613e-18)
(1.0062 -0.0181074 0)
(1.00515 -0.00564971 2.04756e-19)
(-0.00663785 1.78668 0)
(-0.0115381 1.79242 0)
(1.00239 0.00402214 1.61075e-21)
(1.00003 0.0122535 4.13459e-19)
(0.00175682 1.78852 -6.67773e-21)
(-0.00122082 1.78906 0)
(0.0339691 3.1793 1.43676e-19)
(0.395257 3.47459 0)
(1.11223 0.644256 6.12211e-20)
(1.01227 0.0163381 -1.40233e-21)
(1.00363 0.000561332 0)
(1.00295 -0.000907898 4.34711e-22)
(0.0479086 1.83077 0)
(0.0340259 1.73767 0)
(-0.00443901 1.79777 0)
(0.0048785 1.78259 9.0894e-20)
(-0.00186613 1.78462 4.71467e-20)
(0.994557 0.0185166 1.88473e-21)
(1.04385 0.00635573 0)
(1.071 0.021793 0)
(0.0143035 1.75604 0)
(0.00623348 1.77903 0)
(-0.00237692 1.7913 0)
(0.160813 1.86749 -2.50248e-19)
(1.00935 -0.0235711 0)
(1.00161 -0.02997 0)
(1.00651 0.00186416 2.58943e-19)
(1.00232 -0.00497196 -3.12148e-19)
(1.00224 -0.00258146 0)
(0.00834644 1.75954 0)
(-0.00318789 1.78577 0)
(0.00626629 1.76623 0)
(-0.00137509 1.79157 0)
(-0.00498122 1.78746 0)
(-0.00476369 1.79076 0)
(1.02209 0.00313545 0)
(1.01681 0.00382004 -7.43891e-22)
(0.674478 1.1687 4.30011e-19)
(1.0029 0.00184953 -2.57555e-19)
(1.00365 0.00831286 3.1028e-19)
(1.00095 0.00241631 0)
(1.01144 0.0129697 2.50472e-19)
(1.00577 0.0119304 -3.12375e-19)
(0.994603 0.0131608 0)
(0.00557981 1.78469 0)
(0.000648614 1.78909 1.87535e-20)
(-0.00365669 1.78285 -1.32783e-20)
(1.15869 0.246042 -1.55239e-20)
(1.10145 0.0847044 0)
(0.048487 3.08228 -5.41188e-19)
(0.0640558 2.85416 -4.30281e-20)
(0.131042 3.19974 7.49581e-19)
(0.131546 3.2236 -2.67551e-20)
(0.131142 3.22375 0)
(0.0192324 3.13834 1.24666e-19)
(0.0730111 3.16226 5.32283e-19)
(0.0675842 3.18647 -2.39482e-19)
(0.0232417 3.12965 0)
(0.694753 0.349857 0)
(0.610103 0.395965 0)
(1.06315 0.656507 -2.31566e-19)
(1.05716 0.785029 -8.01512e-20)
(1.11487 0.543659 0)
(1.16456 0.515419 0)
(1.01235 0.0144742 -4.60411e-19)
(1.01314 0.0121896 -1.307e-21)
(1.0084 0.00639176 0)
(1.01037 0.00707628 0)
(1.00857 0.00156845 0)
(1.01629 0.00861574 0)
(1.00553 -0.00107151 0)
(1.02058 0.012659 0)
(1.01462 0.0115379 0)
(1.01082 0.00317085 0)
(0.0454722 1.82609 0)
(0.0245463 1.82326 0)
(0.0597376 1.85336 0)
(0.046714 1.8513 0)
(0.037123 1.72782 0)
(0.052157 1.72545 -3.29325e-19)
(0.0314804 1.74929 0)
(0.0351832 1.7463 1.62608e-19)
(0.0297318 1.76932 -1.72193e-19)
(-0.00475725 1.79913 0)
(-0.0056193 1.79791 0)
(-0.00786236 1.79923 0)
(-0.00996793 1.80586 0)
(0.0031451 1.78169 -5.36038e-20)
(-0.000776787 1.78554 6.46637e-20)
(0.00594626 1.78878 8.15417e-20)
(0.0047334 1.78841 0)
(-0.00478858 1.78586 -1.09926e-19)
(-0.00379857 1.78285 -6.27614e-20)
(0.00480337 1.7806 4.36417e-20)
(-0.00294525 1.77905 -8.64522e-20)
(0.00602674 1.78662 -1.00278e-19)
(1.00512 0.0147203 4.5406e-19)
(1.00877 0.00616218 2.51778e-21)
(0.999018 0.0242252 -4.79761e-19)
(0.985598 0.0171219 5.98167e-19)
(1.04017 0.0114593 0)
(1.04249 0.00282278 0)
(1.05667 0.0280089 0)
(1.04298 0.00494577 0)
(1.05874 0.0117124 0)
(1.08921 0.0668227 0)
(1.07097 0.0447835 0)
(1.0927 0.0356467 0)
(0.00719465 1.78032 -2.41004e-21)
(0.0182825 1.7577 0)
(0.0119313 1.76978 0)
(0.00686845 1.78083 1.92114e-20)
(0.00717127 1.78116 -8.42541e-22)
(0.00560438 1.76713 1.90492e-20)
(0.00248001 1.77098 -1.92436e-20)
(-0.0013766 1.78808 0)
(-0.00112285 1.7874 0)
(-0.00265412 1.78584 0)
(-0.00258123 1.79197 0)
(-0.002635 1.7914 0)
(0.23313 1.82556 4.11532e-19)
(0.260134 1.7697 2.12078e-19)
(0.345688 1.61812 -1.98946e-19)
(0.167609 1.66601 4.9111e-19)
(0.211414 1.7995 1.32983e-19)
(1.00301 -0.00667023 0)
(1.00317 -0.0270234 0)
(0.991936 -0.0252244 0)
(1.0198 -0.0103183 0)
(1.01151 -0.0128822 0)
(1.00725 -0.0161228 0)
(1.00796 -0.0200168 0)
(1.00682 -0.0184213 0)
(1.01883 0.000309762 4.42794e-19)
(1.02123 -0.00175886 -5.60425e-19)
(1.01601 0.00677744 -4.3545e-19)
(1.01428 0.00604186 5.51621e-19)
(0.676598 1.23874 0)
(0.556175 1.34607 4.70892e-19)
(0.794855 1.09866 3.05631e-19)
(0.83906 1.09205 -4.10839e-19)
(1.02482 2.74239 -8.73925e-19)
(0.831694 0.121081 2.98474e-19)
(1.10548 0.0905859 0)
(1.14779 0.166172 1.86018e-20)
(1.14322 0.150825 1.66749e-21)
(0.967993 0.115347 0)
(0.11334 2.97919 1.77406e-19)
(0.112565 2.89185 -6.53436e-19)
(0.0359933 2.37899 4.83148e-19)
(0.132108 0.190483 -1.99999e-19)
(0.347115 3.40711 -3.82214e-19)
(0.189788 3.30494 0)
(0.235382 3.33668 4.97775e-19)
(0.243679 3.03331 -8.03522e-19)
(0.307741 3.17078 0)
(0.00634671 3.12088 2.83247e-20)
(0.0172117 3.12922 -3.54263e-19)
(0.0148014 3.12531 5.2142e-19)
(0.0350119 3.13962 0)
(0.0336089 3.15081 0)
(1.23941 2.68903 0)
(0.593758 0.843163 -2.75209e-19)
(0.966833 0.936923 -1.90353e-19)
(0.911313 0.962171 0)
(0.794185 0.898612 6.13073e-20)
(1.02427 0.826429 2.58801e-20)
(0.392306 0.455402 -6.04796e-19)
(0.723647 0.339678 -2.26733e-20)
(0.737692 0.309519 2.29587e-19)
(0.615804 0.429436 1.88261e-20)
(0.566011 0.423291 -7.73456e-19)
(0.690727 0.371667 0)
(0.68521 0.42721 3.81552e-19)
(0.681185 0.414881 0)
(0.639202 0.423165 0)
(0.660567 0.3714 0)
(0.75563 0.572952 1.33077e-19)
(1.15439 0.258378 -4.89484e-20)
(1.15374 0.382684 0)
(1.18647 0.357554 0)
(0.799506 0.213951 3.47577e-19)
(0.780949 0.53911 -1.95324e-19)
(0.692632 0.489639 -3.15276e-19)
(0.879525 0.40526 -2.99e-19)
(1.02145 -0.00454739 3.06337e-19)
(1.01679 0.00271403 -3.24181e-19)
(1.01877 -0.00135742 0)
(1.02255 0.00745942 0)
(1.01411 0.012009 -2.94171e-19)
(1.01916 0.0076324 2.91383e-19)
(1.01564 0.00257519 0)
(1.01553 0.00151889 0)
(1.02311 0.00827482 0)
(1.02273 0.00599045 0)
(1.02909 0.00358413 0)
(1.03002 0.00181586 0)
(0.0202789 1.81992 0)
(0.00270798 1.81148 0)
(0.0877044 1.84721 -9.93205e-21)
(0.157144 1.85891 1.29779e-19)
(0.0862171 1.87635 2.75149e-19)
(0.10378 1.87507 -1.3441e-19)
(0.0951122 1.8624 0)
(0.0799499 1.78006 -1.18792e-19)
(0.0797774 1.78292 0)
(0.197161 1.78203 -1.92161e-19)
(0.182037 1.72411 5.8816e-19)
(0.107313 1.8032 1.07544e-19)
(0.14746 1.82793 3.75498e-20)
(0.12751 1.84598 3.03011e-20)
(0.158212 1.78622 -1.04393e-19)
(0.147752 1.77189 1.21346e-19)
(0.145227 1.77348 9.9054e-20)
(0.0134961 1.77538 -5.36431e-20)
(0.0365217 1.76477 0)
(0.0491417 1.76709 1.85185e-19)
(0.0404829 1.76446 0)
(0.0427334 1.75319 -1.83602e-19)
(0.043303 1.75975 0)
(-0.00840535 1.77031 -4.49325e-20)
(0.000950241 1.77821 0)
(-0.0111228 1.7786 0)
(-0.0116876 1.76964 5.1662e-20)
(-0.000388978 1.78063 1.20497e-21)
(0.00575211 1.77679 2.05486e-19)
(-0.0053934 1.77714 1.39835e-21)
(-0.0074588 1.76954 3.64962e-20)
(-0.0044779 1.76843 -2.30571e-20)
(-0.00610999 1.79606 0)
(-0.00522472 1.79472 0)
(0.0115918 1.78725 1.24976e-19)
(0.00356117 1.77838 8.49596e-20)
(0.000322469 1.78112 -1.18249e-19)
(0.0283063 1.79408 0)
(-0.000584249 1.76324 -7.35896e-20)
(0.00142552 1.7736 3.36153e-20)
(0.000205426 1.77556 -9.92222e-21)
(-0.00740858 1.77093 -4.45757e-20)
(-0.00510544 1.78157 -1.46082e-20)
(-0.00683515 1.7823 7.28643e-20)
(1.01312 0.00524823 -3.018e-19)
(1.01363 0.00361461 3.10721e-19)
(1.01151 0.000906316 0)
(0.991626 0.0627853 4.53409e-19)
(0.982017 0.0264628 -5.10363e-19)
(0.955102 0.0201508 5.85217e-19)
(0.994792 0.0936713 -5.83918e-20)
(1.02441 0.00277515 0)
(1.03078 0.0126667 2.62286e-19)
(1.03275 0.00418901 -2.60267e-19)
(1.02564 0.0328997 -1.50105e-20)
(1.0284 0.0163805 1.32802e-19)
(1.00496 0.0290888 0)
(0.995368 0.0263433 -4.62008e-20)
(1.00514 0.0216576 0)
(1.00423 0.0240524 0)
(1.01601 0.00317591 0)
(1.01569 0.00507859 0)
(1.00458 0.0204509 1.00322e-19)
(1.00603 0.0203509 -2.24681e-19)
(1.00586 0.0308714 -1.05448e-19)
(0.996741 0.0217304 -1.15432e-19)
(1.00145 0.0363628 2.13606e-19)
(1.0388 0.0410029 0)
(1.03132 0.0905333 0)
(-0.000685346 1.76187 -2.89237e-20)
(0.0161791 1.75965 -2.5352e-21)
(0.00713364 1.75827 0)
(0.00380996 1.77274 2.88892e-20)
(0.0120964 1.77258 4.73171e-21)
(0.00911702 1.77427 -4.48376e-21)
(-0.00359062 1.78243 5.64584e-20)
(0.000553636 1.78022 -3.52991e-21)
(-0.00375709 1.77965 1.85065e-20)
(0.00198798 1.78077 -3.10845e-20)
(0.000102685 1.78081 -3.08483e-21)
(-0.000522818 1.78555 5.6909e-22)
(-6.96857e-05 1.77408 2.9415e-20)
(0.152954 1.76058 -1.69896e-19)
(0.144342 1.78901 7.9645e-20)
(0.522295 1.46699 -4.61765e-19)
(0.345693 1.6913 -2.03842e-19)
(0.409862 1.59541 0)
(0.418739 1.60766 2.08202e-19)
(0.470443 1.54403 2.87314e-19)
(0.207951 1.66361 4.64327e-20)
(0.214199 1.65984 -6.70505e-19)
(0.287053 1.68023 5.66728e-19)
(0.309739 1.65342 0)
(0.227221 1.66365 -4.31673e-19)
(0.0864057 1.7015 8.18755e-19)
(0.150601 1.69413 -4.28028e-20)
(0.0913049 1.70611 -1.10626e-18)
(0.854699 1.7386 4.84064e-19)
(0.625704 1.52732 0)
(1.03145 -0.0119858 1.05556e-20)
(1.01532 -0.0149827 -8.8391e-21)
(1.02294 0.00737948 -1.53633e-19)
(1.03336 0.00223235 1.51302e-19)
(1.03563 -0.00724714 0)
(0.398905 1.04145 0)
(0.489791 0.901442 0)
(0.693884 0.984294 0)
(0.660265 0.744316 0)
(1.08577 2.78267 -5.2144e-20)
(0.90007 2.4476 0)
(0.484695 2.80349 -5.96047e-21)
(0.431865 2.36212 0)
(0.531076 2.54703 -3.61113e-19)
(0.537297 2.60865 0)
(0.841927 0.139206 0)
(0.821742 0.153143 8.59943e-20)
(0.900198 0.113472 4.36085e-19)
(0.85146 0.119888 -1.72744e-19)
(0.835413 0.0894264 -5.37305e-19)
(1.00333 0.192892 -2.84764e-19)
(0.911115 0.282784 -1.42908e-20)
(0.865509 0.264297 4.07008e-19)
(0.928454 0.179326 3.07243e-19)
(0.930071 0.145252 -5.56743e-19)
(0.911941 0.148702 7.19244e-20)
(0.925768 0.209899 -1.45089e-19)
(0.910962 0.174121 0)
(0.969318 0.130882 -2.63808e-19)
(0.980435 0.135536 0)
(0.974431 0.166485 0)
(1.04543 0.105205 9.05016e-20)
(1.00314 0.136315 -1.30491e-20)
(1.00008 0.197222 -1.42989e-19)
(1.05884 0.178524 0)
(1.00608 0.0244011 2.30309e-19)
(1.00306 0.0327085 2.76443e-19)
(1.00801 0.0268128 -2.25872e-19)
(1.01172 0.0480169 -1.86571e-19)
(1.00356 0.0570637 -3.17492e-19)
(0.943668 0.105705 0)
(0.960878 0.0876767 0)
(0.94728 0.0364592 -2.09327e-19)
(0.914807 0.0524122 8.93987e-20)
(1.00849 0.0910081 2.6585e-19)
(1.00183 0.11067 -2.77098e-19)
(1.01111 0.129465 2.51855e-19)
(1.0053 0.128737 0)
(1.01324 0.0903196 0)
(1.00108 0.0772729 -1.17002e-19)
(1.00987 0.0822172 -2.12859e-19)
(0.723677 1.4312 -5.70379e-19)
(0.805995 2.27319 5.43648e-19)
(1.1721 2.97896 3.90829e-19)
(1.27496 3.18118 -9.88006e-20)
(1.19751 2.88398 7.75816e-19)
(1.27941 2.82595 -3.60088e-19)
(1.13176 2.404 2.62777e-20)
(1.25693 3.13015 4.13577e-19)
(1.22228 3.14163 -5.93989e-19)
(1.27759 3.30966 -2.84258e-19)
(1.41418 3.06037 3.93775e-19)
(1.41852 2.93456 0)
(0.596471 0.865675 -1.13726e-20)
(0.0962755 1.32444 3.59259e-19)
(0.475005 0.586763 3.98545e-19)
(0.265015 0.357954 4.04156e-19)
(0.558002 0.444544 4.37351e-19)
(0.539178 0.497451 -7.08572e-19)
(0.538018 0.5218 5.76953e-19)
(0.501098 0.498959 -2.31862e-19)
(0.478206 0.422334 5.26607e-19)
(0.805725 0.2462 5.96696e-19)
(0.760171 0.296631 0)
(0.77161 0.266866 1.22476e-20)
(0.666727 0.50661 1.99097e-19)
(0.65064 0.486666 -7.29244e-19)
(0.57993 0.515704 1.67753e-20)
(0.616319 0.465098 0)
(0.648475 0.738917 1.59198e-19)
(0.829409 0.715054 2.02341e-20)
(0.752477 0.845755 -3.77098e-20)
(0.853374 0.70245 -1.22982e-20)
(0.899305 0.790044 1.58354e-20)
(0.898411 0.769841 -1.63028e-20)
(0.786076 0.600456 -2.27532e-19)
(0.88505 0.672935 1.14134e-20)
(0.960598 0.670526 0)
(0.942423 0.646471 -1.95781e-20)
(0.941618 0.298688 7.06189e-20)
(1.06857 0.276938 2.4967e-20)
(0.983725 0.234972 1.16749e-19)
(0.932662 0.330839 -1.57121e-19)
(0.982475 0.392497 0)
(1.03398 0.389352 0)
(0.830511 0.338345 7.2323e-21)
(0.828804 0.29147 0)
(0.849617 0.264549 2.02295e-19)
(0.838804 0.268601 -4.83937e-21)
(0.871926 0.405694 8.17283e-19)
(0.826779 0.483825 2.06283e-19)
(0.829251 0.439115 -2.70621e-19)
(0.75736 0.426129 -2.92016e-19)
(0.742866 0.424107 1.93929e-19)
(0.722505 0.411152 -1.89553e-19)
(1.01719 0.0142555 2.39409e-19)
(1.0209 0.00604145 0)
(1.02278 0.0119009 1.65983e-19)
(1.01539 0.0146852 -3.23803e-21)
(1.02018 0.00641293 1.76982e-19)
(1.02073 0.00444785 -3.81713e-19)
(1.01936 -0.00119741 0)
(1.01992 -0.00474756 -7.81713e-20)
(1.02489 9.47581e-05 1.95055e-19)
(1.02217 -0.000998335 -1.02296e-19)
(1.02224 -0.00192882 7.55866e-20)
(-0.0182811 1.80063 0)
(-0.012993 1.77996 0)
(-0.00619997 1.80925 0)
(-0.0136493 1.80576 0)
(0.0514006 1.80454 7.44613e-20)
(0.0546748 1.81216 -2.07197e-20)
(0.0637908 1.79036 -4.42374e-20)
(0.0623506 1.81483 -8.61071e-21)
(0.0160994 1.79559 -7.40696e-20)
(0.020466 1.79734 5.39674e-20)
(0.0456168 1.80931 -2.37156e-20)
(0.0204587 1.81604 2.60749e-20)
(0.00230251 1.79632 -2.38593e-21)
(-0.00819261 1.78979 7.69709e-21)
(0.0469903 1.76753 -2.05089e-19)
(0.0508243 1.75744 0)
(0.0568394 1.7524 1.28744e-19)
(0.0723514 1.77743 8.26355e-20)
(0.119272 1.74331 -9.1565e-20)
(0.106988 1.6945 0)
(0.114321 1.68146 -6.23534e-19)
(0.16041 1.70839 4.39059e-19)
(0.107015 1.74813 -3.34441e-19)
(0.076799 1.73734 1.38437e-19)
(0.0420607 1.71253 0)
(0.00597022 1.77982 -1.49096e-19)
(0.00450653 1.77698 -1.70135e-19)
(0.00573869 1.78299 0)
(0.00437127 1.77602 -3.94864e-21)
(0.00946613 1.77549 7.99605e-20)
(-0.00618634 1.77592 7.66674e-21)
(-0.00317931 1.78497 -1.24898e-19)
(-0.00383991 1.77636 3.10455e-20)
(-0.00827399 1.76362 4.43129e-20)
(-0.00500469 1.76778 0)
(-0.00281352 1.77915 0)
(-0.00157101 1.79227 3.18971e-20)
(0.000490037 1.78757 -9.7147e-21)
(0.000669333 1.78506 0)
(-0.00249418 1.79297 2.47979e-20)
(-0.00188043 1.79157 -5.02015e-20)
(1.01226 0.0138041 0)
(1.01293 0.0159576 -2.48502e-20)
(1.00861 0.0166898 -1.8165e-19)
(1.01252 0.0242434 0)
(1.01307 0.0268806 0)
(1.01081 0.00839853 -4.90514e-21)
(1.01412 0.0066059 2.91671e-19)
(1.01324 0.00669843 3.57962e-19)
(1.01781 0.00610682 0)
(1.01772 0.00559626 0)
(1.00929 0.0144402 1.79489e-19)
(1.00948 0.0106437 0)
(1.01764 0.00859884 0)
(-0.00666866 1.76458 0)
(-0.00594771 1.76414 3.33849e-21)
(-0.00375319 1.75885 1.72822e-20)
(-0.00320578 1.78766 0)
(-0.00450097 1.77718 2.2032e-20)
(-0.00305127 1.78663 -9.73585e-21)
(-0.00187386 1.79103 0)
(0.163214 1.96996 0)
(0.113375 1.80962 -1.60153e-19)
(0.133935 1.83551 0)
(0.104429 1.80439 -4.44894e-20)
(0.167112 1.5983 0)
(0.159025 1.7183 3.34645e-20)
(0.880776 2.57645 -9.05069e-21)
(0.841535 1.8462 -6.48771e-19)
(0.903376 1.80169 1.89688e-20)
(0.663756 1.56861 2.36797e-19)
(0.552357 2.03833 0)
(0.587588 2.21535 0)
(0.822653 1.68872 0)
(0.778963 1.49325 -8.23416e-19)
(0.350519 2.14143 -4.87021e-19)
(0.53811 2.00988 -1.4385e-19)
(0.403308 2.29815 1.1038e-19)
(0.529849 1.54146 0)
(0.607295 1.51579 0)
(0.579287 1.50098 -3.29514e-19)
(0.554278 1.84195 0)
(0.805196 0.791852 0)
(0.741289 0.87756 3.03644e-19)
(0.705921 0.829915 1.10296e-20)
(0.78584 0.791485 0)
(0.894187 0.930703 -4.77132e-19)
(0.779298 0.880452 3.56526e-20)
(0.766542 0.929663 0)
(0.751988 0.916136 -8.13788e-20)
(0.70871 0.925821 0)
(0.722576 0.87945 0)
(1.04626 3.04517 2.95167e-19)
(1.09412 3.09592 3.76193e-19)
(0.810771 2.85321 -7.92702e-19)
(0.707373 2.81132 1.03341e-19)
(0.98498 2.91425 0)
(0.888458 2.8819 -1.46167e-19)
(0.923851 2.573 2.65925e-19)
(0.859561 2.30283 1.31123e-21)
(0.192078 2.29727 0)
(0.302256 1.30115 4.9714e-19)
(0.332747 1.29536 0)
(0.88048 0.189823 0)
(0.827456 0.181725 0)
(0.783823 0.187741 0)
(0.880035 0.208286 -3.17294e-19)
(0.821234 0.213759 2.00467e-19)
(0.912876 0.0550044 -1.85555e-19)
(0.904993 0.0965005 0)
(0.890925 0.103501 8.2827e-20)
(0.868027 0.0799642 3.42373e-19)
(0.882048 0.0558703 -2.10912e-19)
(1.20748 3.37601 -9.41043e-19)
(1.27801 3.31119 0)
(1.19039 3.38156 -1.77467e-18)
(0.687696 3.53617 1.54577e-18)
(0.942404 3.05502 2.54385e-19)
(0.575367 1.01723 3.77333e-19)
(0.607466 0.956363 0)
(0.363711 0.616028 -9.55093e-20)
(0.427944 0.759475 -4.4644e-19)
(0.473561 0.573576 -1.22398e-19)
(0.480422 0.566632 1.46031e-19)
(0.610625 0.506826 2.95731e-19)
(0.647965 0.51716 0)
(0.588124 0.633059 0)
(0.542979 0.594187 0)
(0.944059 0.57207 -4.49698e-20)
(0.825672 0.522223 -1.98478e-19)
(0.848537 0.563161 9.44562e-20)
(0.876466 0.501065 -1.50184e-19)
(1.00413 0.458497 0)
(0.988909 0.544 -9.24273e-21)
(0.783109 0.385854 -4.3012e-19)
(0.788251 0.376499 6.42942e-19)
(0.755887 0.382031 3.3675e-19)
(0.743857 0.364682 -3.71345e-19)
(0.812252 0.32055 -2.74087e-19)
(0.766022 0.322873 3.36829e-19)
(1.01762 0.00477575 -1.89212e-19)
(1.01836 0.00208576 3.85877e-19)
(1.01671 0.0111134 2.34105e-19)
(1.01375 0.00827743 -2.8874e-19)
(1.00667 0.0145103 0)
(1.01472 0.00540549 -4.55833e-19)
(0.049936 1.79124 3.0974e-20)
(0.042536 1.793 0)
(0.0666385 1.78084 2.46931e-19)
(0.0671306 1.78529 -2.28067e-19)
(0.0651428 1.78901 8.35351e-20)
(0.0629238 1.79389 0)
(-0.0100989 1.76917 0)
(-0.00626076 1.77269 -1.24608e-20)
(-0.0074244 1.77672 1.12661e-20)
(-0.00600312 1.77437 2.5129e-21)
(-0.0102896 1.76906 -2.12508e-20)
(-0.00925197 1.77013 -3.17431e-20)
(0.112774 2.10822 5.96105e-20)
(0.0678369 2.08033 6.22057e-20)
(0.0556152 1.79847 1.35192e-19)
(0.0755659 2.02104 4.83853e-21)
(0.310793 1.1814 0)
(0.195006 1.48073 3.21883e-19)
(0.241884 1.31053 -3.12609e-19)
(0.00963494 1.5933 -1.34227e-19)
(0.0471298 1.57107 0)
(0.196184 1.28634 0)
(0.370277 2.00178 7.42222e-19)
(0.488966 1.71772 1.40848e-18)
(0.552366 1.80928 -9.08045e-19)
(0.428655 1.69646 -1.76001e-19)
(0.316825 1.84199 2.84769e-19)
(0.296084 1.68224 -7.23106e-19)
(0.877975 2.04054 9.52211e-21)
(0.878238 2.31034 0)
(0.89286 2.03575 3.79743e-19)
(0.894027 2.80877 0)
(0.829348 2.68253 0)
(0.712765 2.17828 1.33903e-19)
(1.10889 3.04605 4.19519e-19)
(0.992642 2.93358 -2.78994e-19)
(0.238544 0.999258 0)
(0.328906 0.893445 -2.30236e-19)
(0.607063 0.895708 -8.48135e-19)
(0.394077 1.9653 0)
(0.40953 2.71564 -1.76945e-19)
(0.423498 2.52411 0)
(0.68943 0.69022 -3.2975e-19)
(0.737586 0.661739 4.21202e-19)
(0.75477 0.579794 2.87826e-19)
(0.624408 0.643525 5.01951e-20)
(0.675943 0.588277 -2.09809e-19)
(1.11538 2.71915 -3.18402e-19)
(1.11705 2.79269 4.96908e-19)
(0.738293 2.16409 5.09743e-20)
(0.851875 1.72784 -4.52564e-20)
(1.05386 2.12129 7.57097e-19)
(1.15057 2.50885 4.79793e-20)
(1.07354 2.58813 -4.90185e-19)
(0.938975 1.8649 -2.22649e-20)
(0.899249 1.46714 -8.78116e-19)
)
;

boundaryField
{
    wall-4
    {
        type            noSlip;
    }
    velocity-inlet-5
    {
        type            fixedValue;
        value           uniform (1 0 0);
    }
    velocity-inlet-6
    {
        type            fixedValue;
        value           uniform (0 3 0);
    }
    pressure-outlet-7
    {
        type            zeroGradient;
    }
    wall-8
    {
        type            noSlip;
    }
    frontAndBackPlanes
    {
        type            empty;
    }
}


// ************************************************************************* //
