/*--------------------------------*- C++ -*----------------------------------*\
| =========                 |                                                 |
| \\      /  F ield         | OpenFOAM: The Open Source CFD Toolbox           |
|  \\    /   O peration     | Version:  2412                                  |
|   \\  /    A nd           | Website:  www.openfoam.com                      |
|    \\/     M anipulation  |                                                 |
\*---------------------------------------------------------------------------*/
FoamFile
{
    version     2.0;
    format      ascii;
    arch        "LSB;label=32;scalar=64";
    class       volScalarField;
    location    "25";
    object      p;
}
// * * * * * * * * * * * * * * * * * * * * * * * * * * * * * * * * * * * * * //

dimensions      [0 2 -2 0 0 0 0];

internalField   nonuniform List<scalar> 
918
(
0.227498
0.900022
0.0122958
0.226816
-0.00851233
0.867123
-0.833273
0.403517
0.207588
-0.414557
-0.428296
0.199038
0.727525
0.494342
-1.45911
-0.134564
0.357691
-0.709938
0.206568
-0.0306344
0.458993
0.214222
0.217263
0.207858
0.269026
0.48016
0.608086
0.0136313
0.00562932
0.00204129
-0.00682431
-0.0410021
-0.0499867
0.750762
0.801856
0.82452
0.176458
0.00256324
-0.687333
-0.761268
-0.749809
-0.879537
0.395225
0.399767
-0.494351
0.404168
0.416729
0.194987
0.206922
0.207851
0.208981
0.207893
0.2093
0.100489
-0.420701
-0.457591
-0.398777
-0.395875
-0.216274
-0.448591
-0.43767
-0.412496
-0.37143
0.130366
0.196164
0.193036
0.203614
0.211856
0.83957
0.811474
0.837616
0.751291
0.767818
0.705485
0.678033
0.514561
0.535889
0.479627
0.469354
-1.9022
-2.87534
-0.85766
-0.600267
-0.00165243
-0.169508
-0.19783
0.346921
0.350225
0.356421
0.370468
0.75352
-0.703736
-0.848034
0.20664
0.205442
0.213966
0.214656
0.210664
0.209764
-0.0521029
-0.0940179
-0.013289
-0.0175842
-0.02189
0.443813
0.438554
0.208418
0.205462
0.219493
0.242153
0.231499
-0.0281338
0.277068
0.296116
0.293917
0.466857
0.462176
0.470594
0.581529
0.544663
0.645498
0.668696
0.00300053
0.0041
-0.118887
-0.0633604
-0.0826095
0.172618
0.165748
0.190616
0.179737
0.181976
-0.081835
-0.217975
0.0878697
0.110759
-0.596301
-0.661727
-0.768836
-0.783166
-0.891015
0.243487
0.386126
0.388438
-0.51105
-0.430277
-0.57216
-0.356433
-0.422842
0.185377
0.192323
0.187359
0.202669
0.19721
0.199154
0.211219
0.208292
0.209842
0.16462
0.285941
0.033621
0.0109751
-0.568475
-0.471362
-0.556872
-0.383572
-0.388246
-0.213426
-0.185596
-0.231827
-0.23714
-0.396681
-0.42556
-0.407064
-0.335817
-0.278984
0.123234
0.113199
0.141483
0.14823
0.187847
0.188993
0.190962
0.189921
0.628797
0.651072
0.65865
0.632494
-3.88748
-6.71314
-0.267009
-0.125442
-0.000849417
0.00344086
0.00109458
0.0067343
0.00289704
-0.00391201
-0.282191
-0.279319
-0.235401
-0.257178
0.331972
0.333449
0.669706
0.660885
0.654825
0.607375
0.19478
0.196943
0.202455
0.198307
-0.229844
-0.137573
-0.177001
0.414012
0.428533
0.426139
-0.063653
-0.148948
0.0179527
0.0451023
0.318173
0.30114
0.317611
0.355756
0.392843
0.676131
0.694467
0.692707
0.701252
0.745346
0.761802
0.72705
0.153495
0.162992
0.158046
0.193948
0.191495
0.192565
0.18765
0.18928
0.18687
-0.371765
-0.759108
0.16915
0.191257
0.156292
0.172749
0.320918
0.394087
0.367573
0.378817
0.380153
-0.28979
-0.351592
-0.0376169
-0.0805754
0.0699681
0.102262
0.0849296
0.599808
0.560524
0.610446
0.583823
0.545367
0.570793
-0.710819
-2.23954
-1.34228
0.235127
0.0430216
0.132874
-0.242413
-0.277228
-0.271658
0.645984
0.727044
0.342724
0.503913
0.51612
0.433487
0.464486
0.517588
0.443123
0.47763
0.513149
0.495229
0.203161
0.178267
0.17265
0.464978
0.520558
-0.176421
-0.228635
-0.278029
-0.179305
-0.138196
-0.145979
0.695327
0.581758
0.657615
0.205189
0.205872
-0.00205212
-0.00722392
0.209981
0.210062
-0.00273976
-0.0225014
0.115178
-1.16885
-0.18791
0.198356
0.188849
0.20553
-0.404798
0.0615719
-0.463422
-0.258495
-0.306288
0.196256
0.139505
0.1047
0.00902098
-0.107728
-0.0753254
-0.521254
0.202838
0.201175
0.205026
0.206059
0.206702
-0.000484959
-0.0101457
-0.00208269
-0.0588332
-0.0233512
-0.0232253
0.170825
0.187092
-0.482871
0.20521
0.207319
0.207166
0.200187
0.206008
0.204115
-0.0753096
-0.0445418
-0.0975507
-0.0774325
0.0388317
0.367809
0.468845
0.328333
0.0995696
-0.142836
0.264768
0.332439
0.231899
0.394801
0.375457
0.39318
-0.127206
-0.274364
-0.119495
-0.173668
0.196353
0.194987
0.187066
0.184205
0.200437
0.198469
0.203139
0.199945
0.202977
0.20438
-0.35764
-0.387283
-0.398231
-0.462477
0.0213913
0.277165
-0.0473391
-0.0150842
-0.152941
-0.493245
-0.427846
-0.461179
-0.43475
-0.454853
-0.315998
-0.284811
-0.253486
-0.33303
-0.379118
-0.502636
-0.401545
-0.413479
0.190457
0.189381
0.195581
0.20256
0.148488
0.151803
0.120897
0.138994
0.124495
0.0709606
0.104021
0.0803811
0.00125703
0.0107648
0.00582955
-0.120367
-0.224465
-0.0477042
-0.013732
-0.0140719
-0.0270398
-0.0342926
-0.117993
-0.143856
-0.481506
-0.599325
0.652041
0.600318
-0.205246
0.192047
0.198477
0.195281
0.199995
0.203092
0.203947
0.201728
0.198358
0.18779
0.189663
0.185691
0.186111
-0.426026
-0.560638
-0.38334
-0.450031
-0.191881
0.308148
0.0515421
-0.00771735
-0.0123755
0.202304
0.605304
0.407429
0.41838
0.44329
-0.66828
-0.267284
-0.599658
0.0219291
-0.157352
0.364495
0.416752
0.440749
0.386321
0.336208
-0.444764
0.2125
-0.368832
-0.325705
-0.136336
-0.238975
0.408086
0.359659
0.366778
0.381033
0.400701
0.364277
0.342912
0.340451
0.3762
0.381222
0.17506
-0.045375
-0.0904293
-0.127168
0.340555
0.215651
0.271462
0.18832
0.191153
0.194031
0.192564
0.175645
0.182754
0.17867
0.18389
0.186864
0.196263
0.196717
0.191932
0.194386
-0.373568
-0.37662
-0.335326
-0.445417
-0.438477
-0.484616
-0.377678
-0.243633
-0.278501
-0.0896702
0.0232488
-0.273094
-0.385417
-0.352523
-0.325515
-0.142534
-0.122001
-0.214583
-0.134856
-0.125151
-0.146703
-0.0452803
-0.0444004
-0.480654
-0.441005
-0.417064
-0.461592
-0.30078
-0.202319
-0.192491
-0.487434
-0.591942
-0.410478
-0.339325
-0.338242
-0.379239
-0.397908
-0.311102
-0.103824
-0.120779
-0.183397
-0.405805
-0.313168
-0.359868
0.185962
0.187428
0.187499
0.198645
0.21012
0.225258
0.191503
0.168713
0.160415
0.163519
0.138835
0.148383
0.143618
0.156481
0.175787
0.18244
0.182193
0.184226
0.168918
0.17009
0.158215
0.161299
0.139073
0.122249
0.111413
-0.0512404
-0.0313537
-0.0484868
-0.0635576
-0.00980174
-0.0272449
-0.313123
-0.20941
-0.267105
-0.230406
-0.346231
-0.0511039
-0.0691599
-0.39459
-0.31884
-0.509899
-0.538778
-0.609714
0.563102
0.669951
0.49264
0.278528
0.282091
0.506879
0.604227
0.242388
0.412268
0.443425
0.214102
0.485892
0.196978
0.196427
0.193975
0.193486
0.195035
-0.343007
-0.243904
-0.224871
-0.177248
-0.0613689
0.0542793
-0.0387994
-0.165172
-0.0248647
-0.0138825
0.303211
0.319797
0.264118
0.289362
0.288593
0.115376
0.190525
0.245622
0.200584
0.244414
0.266416
0.227159
0.256902
0.205088
0.163149
0.162047
0.108829
0.129238
0.107159
0.0892938
0.186889
0.165879
0.175485
0.167502
0.187172
0.214938
0.21029
0.236066
0.248139
0.172448
0.134909
0.143692
0.170644
0.133161
0.145908
0.160304
-0.121569
-0.220322
-0.132938
-0.426602
-0.337351
-0.352853
-0.398744
-0.359937
-0.0729761
-0.775965
-0.744463
-1.38234
0.148555
0.631327
0.365179
0.338098
0.398502
0.3754
0.379309
0.407251
0.413743
0.33082
0.350851
0.352634
0.302912
0.329752
0.355398
0.353208
0.184064
0.0668685
0.0582962
0.0198942
-0.101154
-0.0704975
0.131084
0.053896
-0.0176808
-0.0129556
0.150563
0.0423143
0.106823
0.144534
0.0787927
0.0358076
0.231982
0.299839
0.290482
0.265285
0.180235
0.191674
0.218429
0.254841
0.281115
0.316287
0.183825
0.189287
0.190541
0.188128
0.18565
0.188396
0.188315
0.190843
0.191814
0.194768
0.193649
-0.407857
-0.394082
-0.363204
-0.387616
-0.322462
-0.326018
-0.283707
-0.296316
-0.326275
-0.314376
-0.344071
-0.357614
-0.363956
-0.353132
-0.201704
-0.194512
-0.225276
-0.254648
-0.0687419
0.0605229
0.121763
0.00920127
-0.0961519
-0.0775149
-0.0441293
-0.323603
-0.334187
-0.371362
-0.277042
-0.265212
-0.498113
-0.462219
-0.466075
-0.597285
-0.513983
-0.372619
-0.197941
-0.239701
-0.290624
-0.285958
-0.228024
0.17056
0.164617
0.166367
0.160922
0.159882
0.172859
0.176835
0.178516
0.183045
0.184535
0.176644
0.180753
0.184027
-0.243863
-0.114773
-0.164252
-0.219285
-0.147571
-0.102243
-0.13392
-0.217738
-0.283477
-0.274829
-0.323427
-0.444412
-0.388152
0.134485
0.124229
0.143262
0.35954
0.214634
0.130297
0.217831
0.321875
-0.07448
0.126875
-0.0428178
0.536869
0.42446
0.566436
0.19912
-0.105251
0.0455441
0.100787
-0.0985062
-0.0268568
-0.00238382
-0.11272
-0.0827153
-0.0542995
0.0474153
-0.0760534
-0.105738
-0.352024
-0.168963
-0.037278
-0.0595577
0.0740814
0.138625
-0.0912555
-0.167698
-0.209041
0.293493
0.314391
0.333084
0.302526
0.326097
0.249577
0.240178
0.259026
0.269033
0.262773
-1.11131
-0.820736
-1.76132
-1.06806
-0.622541
0.18262
0.135916
0.429565
0.315889
0.393504
0.375314
0.331218
0.295
0.304616
0.340919
0.043335
0.151327
0.125699
0.133337
0.0375913
-0.0299771
0.268607
0.26204
0.299386
0.323954
0.290274
0.324473
0.181813
0.18136
0.180684
0.177474
0.1757
0.177939
-0.242863
-0.279617
-0.238595
-0.252105
-0.272105
-0.292154
-0.384325
-0.363228
-0.284279
-0.275007
-0.284906
-0.342219
-0.185378
-0.240871
-0.308057
-0.282267
-0.337026
-0.401874
-0.420745
-0.32261
-0.235984
-0.242244
0.0610792
0.312504
0.138691
0.308902
0.147263
0.204835
0.143253
0.141082
0.175098
0.0374968
0.111712
-0.130912
-0.632595
-0.539529
0.441066
0.461584
0.249146
0.0556941
-0.171022
0.0247019
0.213661
0.152254
0.192763
0.260325
0.254314
-0.342963
-0.268908
-0.0320553
0.195025
-0.113839
-0.120777
-0.125537
0.0383612
-0.0323439
)
;

boundaryField
{
    wall-4
    {
        type            zeroGradient;
    }
    velocity-inlet-5
    {
        type            zeroGradient;
    }
    velocity-inlet-6
    {
        type            zeroGradient;
    }
    pressure-outlet-7
    {
        type            fixedValue;
        value           uniform 0;
    }
    wall-8
    {
        type            zeroGradient;
    }
    frontAndBackPlanes
    {
        type            empty;
    }
}


// ************************************************************************* //
