/*--------------------------------*- C++ -*----------------------------------*\
| =========                 |                                                 |
| \\      /  F ield         | OpenFOAM: The Open Source CFD Toolbox           |
|  \\    /   O peration     | Version:  2412                                  |
|   \\  /    A nd           | Website:  www.openfoam.com                      |
|    \\/     M anipulation  |                                                 |
\*---------------------------------------------------------------------------*/
FoamFile
{
    version     2.0;
    format      ascii;
    arch        "LSB;label=32;scalar=64";
    class       surfaceScalarField;
    location    "25";
    object      phi;
}
// * * * * * * * * * * * * * * * * * * * * * * * * * * * * * * * * * * * * * //

dimensions      [0 3 -1 0 0 0 0];

oriented        oriented;

internalField   nonuniform List<scalar> 
1300
(
3.75095
5.62643
-5.74917
3.75095
-5.68211
5.62643
-4.49754
4.49754
-1.14889
1.14889
1.87647
1.87448
-2.94678
2.94678
-2.29302
2.29302
-2.57026
2.57026
-5.24648
5.24648
-5.06883
5.06883
4.67835
-4.67835
-4.35143
4.35143
-1.57436
1.57436
-3.92931
3.92931
3.17024
-3.17024
-3.93611
3.93611
-0.350285
0.350285
-0.553543
4.3045
3.19741
3.19741
-2.22951
2.22951
-4.85886
4.85886
6.21824
-6.21824
8.64194
-8.64194
-2.89277
-3.41094
1.40592
-8.64569
-4.27619
-4.27619
-8.4404
8.4404
-2.81397
2.81246
2.94209
-2.94209
-1.77868
1.77868
-4.42516
-0.0723706
-4.42516
4.50567
-0.00813776
4.50567
-1.28299
0.134095
-1.28299
3.98236
-3.98236
0.97566
0.173234
0.97566
3.06439
-3.06439
-1.87715
3.75362
1.87381
-1.87179
6.17628
-1.87917
3.75365
-5.87174
5.87174
-3.18992
0.243139
-3.18992
2.71965
0.227132
2.71965
-6.38596
6.38596
-2.25123
-0.0417903
-2.25123
2.53431
-0.241291
2.53431
2.84799
-2.84799
-2.65653
0.0862745
-2.65653
2.49629
0.0739692
2.49629
0.353552
5.27288
-5.97998
8.79245
-5.27288
0.0264024
5.20846
0.0380158
5.20846
-5.10619
0.0373671
-5.10619
5.01043
0.0583972
5.01043
4.77342
-0.0950747
4.77342
-4.79086
0.112518
-4.79086
-3.1622
-3.84333
-4.35048
-0.000952529
-4.35048
-1.58699
0.0126294
-1.58699
1.53559
0.0387665
1.53559
-3.51982
3.51982
-4.30265
0.373344
-4.30265
3.12487
0.0453739
3.12487
1.8685
1.88245
5.61946
-5.61946
2.44921
-3.57656
-0.359555
-3.57656
-4.25801
-4.38393
4.25801
-0.321894
-0.620647
0.270362
-0.620647
3.15918
0.0382356
3.15918
2.40199
0.0942977
-2.40199
0.172475
3.26676
-3.26676
1.60764
0.621873
1.60764
-5.56786
5.56786
4.95198
0.0584461
-4.95198
0.0931259
6.15737
0.0608636
6.15737
-6.1996
-0.0186333
-6.1996
3.05509
-6.46603
-3.62065
4.3233
0.0281376
-4.3233
0.0471018
2.91219
0.0299026
2.91219
-2.92354
2.92354
-2.98235
0.0402638
-2.98235
-2.1883
0.409617
-2.1883
1.46812
0.310564
1.46812
-4.29349
-0.131674
-4.29349
-4.44059
0.137932
4.44059
0.0650863
1.00438
-1.00438
-1.42549
0.142503
-1.42549
-4.12485
-0.168645
4.12485
-0.142489
-3.87283
-0.109526
-3.87283
-3.02298
0.0406259
3.02298
0.0414138
3.11239
0.0467822
-3.11239
0.0479992
-1.87083
3.75328
-1.88012
3.75393
-5.49723
-0.374503
-5.49723
6.17814
-0.306402
6.17814
3.55734
0.371971
-3.55734
0.367422
2.54816
0.171486
2.54816
-6.53293
0.146967
-6.53293
5.96706
0.418905
5.96706
2.39022
0.157943
-2.39022
0.13899
2.80366
-0.269354
2.80366
2.8633
-0.0153035
2.8633
-2.85534
0.00735056
-2.85534
2.80447
-2.80447
2.73501
0.0694623
-2.73501
0.0784816
-11.1328
11.1142
-0.0351398
-11.0977
5.17332
5.17332
4.20559
0.567827
4.20559
-5.00338
0.212516
-5.00338
3.01451
-6.63516
3.76784
-6.93004
3.77108
-12.4168
3.30388
-7.14721
4.87241
-4.87241
4.48374
0.388668
-4.48374
0.133258
-1.60558
0.0185998
-1.60558
-2.90466
-0.615157
-2.90466
4.18148
-0.661662
4.18148
-3.02993
3.02993
-3.07841
0.0484784
3.07841
0.0464654
3.20885
-0.405184
-3.20885
-0.367711
0.797658
0.178001
-0.797658
0.177012
3.48497
-0.218215
3.48497
-3.0639
-0.20286
-3.0639
-1.61134
0.00575455
1.61134
-0.00369857
-5.81624
0.248373
-5.81624
-11.1907
0.0930152
-11.1527
-6.10659
-6.10659
2.33381
11.1263
-2.88307
0.0277268
2.88307
0.0291182
2.97782
0.0521121
-2.97782
0.0542712
-2.86626
0.0617865
2.86626
0.0572834
-2.57119
0.382893
-2.57119
-1.04749
1.04749
-1.24018
0.192689
1.24018
0.227937
1.2433
-0.238919
1.2433
1.50261
0.0329796
-1.50261
0.0771174
-3.77319
-0.099645
-3.77319
6.42111
-0.242968
6.42111
-2.93401
-0.129885
2.93401
-0.0707167
-0.0332897
11.1475
-5.14003
0.033837
5.14003
-11.2083
11.2422
-3.24915
0.677955
3.24915
0.956448
5.29166
0.276203
-5.29166
0.288281
5.39594
0.571114
-5.39594
0.523537
-2.40867
-0.495991
-2.40867
-4.91411
-0.583126
4.91411
-0.732625
-11.4753
-0.203779
11.6791
-11.4169
6.02002
0.137358
-6.02002
11.3795
-0.951442
-0.0529375
0.951442
0.09605
1.55346
-0.310164
1.55346
3.67242
-0.187444
-3.67242
-0.100768
-6.56016
0.0272272
6.56016
-0.13905
-1.9634
-0.445271
1.9634
-0.40994
-4.26667
4.30491
1.90961
-2.77012
-3.69591
-7.15405
1.85185
1.90143
4.30106
-7.83605
-4.58073
-7.78895
7.26942
-6.98114
-9.29006
9.19498
7.55215
-7.66168
-5.78465
5.83111
6.48196
-6.44055
1.87902
1.8746
7.94458
-7.70144
-15.6377
15.2632
5.91861
-5.96041
16.0946
-15.9476
-17.9098
18.4809
-5.74779
5.83406
-6.67581
6.68316
-6.8641
6.79339
-2.56793
-4.36211
11.0263
-11.0272
9.42774
-9.7873
-8.50696
8.88031
3.38265
0.922256
3.42944
-1.88237
3.76138
-1.87128
3.78089
3.8499
-6.41783
2.78526
-6.48117
5.39495
4.0328
-5.07305
-2.081
-5.91874
5.94864
-5.82168
5.87896
8.89754
-8.96992
-1.88517
3.75977
-1.86876
3.77019
-3.42535
-2.3593
3.37998
0.921089
6.52417
4.50211
-6.5523
-1.23664
-7.7694
7.58196
-8.05181
7.84895
-0.447411
5.82148
-5.37407
4.41145
-1.55477
7.37624
5.71465
5.92717
5.86698
-5.59078
1.11415
-6.48822
-6.39509
-2.5449
2.6874
2.52136
-2.34813
5.92629
1.62586
5.7838
-5.53724
-2.12443
-5.63689
3.82137
2.00974
3.86985
4.07578
2.40618
4.1164
3.03124
-3.035
0.00376066
-3.05675
6.08799
0.72477
-5.41605
-4.49496
4.92441
3.02017
5.15154
-5.50155
-2.19989
-5.13413
-9.52003
-6.11763
-10.1032
10.0978
5.16539
9.79137
-11.9366
11.7975
3.77177
2.14684
3.53048
-4.04244
-1.91796
-3.90345
13.0536
-3.50429
-9.54929
-10.6233
-7.28647
10.2044
5.89014
10.6288
7.85209
11.1524
4.7354
8.31818
-10.6255
3.33907
-3.87413
-1.87365
-3.79565
3.72599
2.10807
3.79996
-4.20112
-2.47468
-4.17339
-4.23903
-2.62507
4.25434
2.42882
-4.31937
-3.73244
4.44925
2.34414
3.70881
-8.28954
3.4384
-7.80051
-8.203
-2.82423
-8.06974
5.00335
1.55719
-6.56054
-1.41448
9.97665
-5.94385
7.89565
-5.04993
-4.73737
-5.41764
-6.80554
-1.70142
-6.66761
-8.84149
8.3455
-9.15843
8.49676
12.7372
-5.71695
-7.02021
-3.96828
-2.47226
3.92028
-0.490849
-3.71222
3.71598
0.0491616
3.83005
4.75231
4.26146
-3.886
-1.93568
-3.83173
3.83343
2.04553
3.89522
6.73472
2.16283
6.72658
-6.4074
-2.56252
-6.53907
9.10579
-8.69618
2.95926
-2.95351
5.24625
2.60269
-5.02804
-2.74137
6.09964
-3.05511
-3.04453
-12.2129
10.5744
1.63852
-4.83669
-0.425243
-0.0749583
-5.50649
-3.78357
5.39397
0.533198
11.1076
7.32405
-5.51286
5.76123
6.1662
6.22464
-0.170453
5.85764
-5.17968
5.35668
-2.46668
-2.89
5.27917
-5.44781
-1.2599
-5.27135
4.01145
0.335987
1.78332
-1.51296
-2.03579
-0.509108
-1.95868
1.50108
1.02028
1.67908
0.993439
1.69397
-2.92313
0.520064
2.40307
-1.92969
-1.82806
-3.66831
-1.02636
4.69468
5.52913
2.05283
-5.42836
-0.208531
2.74082
-2.70206
-0.7994
-2.86891
2.1013
-2.9007
-3.53301
-1.90804
5.44105
-3.37035
-0.461374
3.31824
0.551611
-3.82476
-2.09398
3.78449
0.331909
-3.12421
6.18876
-3.06455
-5.05989
2.5295
3.55849
4.53924
-4.79013
2.44592
2.34421
-1.23164
4.02713
1.12441
4.19862
-6.76144
4.56155
5.72264
3.15767
-6.09461
0.96048
-5.80096
8.46974
-7.30499
-1.16474
4.12954
4.3402
7.18868
5.54849
-5.73703
12.9257
-1.13407
-6.17093
6.93503
-3.77736
4.77393
-8.55129
-10.3224
4.15149
-9.16327
11.0224
-1.85909
-3.60577
-8.33078
12.769
-1.21762
-11.5514
8.57375
-4.19394
-4.57367
8.7676
-7.69822
6.49163
-1.32643
-5.1652
-10.2109
-5.73671
10.1837
1.61384
-10.9412
14.2803
-2.62307
3.43112
0.0993549
3.16177
3.27291
-5.92272
2.64981
4.42531
-5.75174
1.642
-7.56471
-6.77893
11.2674
-4.48847
-9.60315
-9.90062
0.297469
1.8077
12.4726
-9.65979
6.42933
3.23046
3.31012
0.585102
-3.37958
-0.416071
0.320237
4.5425
-4.86274
4.1202
4.2145
3.41603
1.12647
3.83512
2.11352
-3.86424
-0.309152
-4.12985
1.50478
-1.70103
-3.65549
5.16027
-4.08956
0.434071
-2.73231
-3.54926
6.28157
-4.60596
3.04052
3.14824
5.08605
-4.92854
1.37928
-2.42889
-2.49965
2.71028
-4.41131
1.96149
3.19878
4.30563
0.573189
6.22832
5.03908
-7.78551
-0.0150052
9.54118
-8.30454
3.17883
7.97354
-9.60816
-0.292463
-8.3622
-0.027811
-5.91604
-6.58835
5.06929
-6.77071
-3.48199
6.14867
0.577915
-6.21375
-0.453857
-5.99327
-2.84823
-6.43854
-3.06546
-6.09296
-8.8025
-1.63738
-7.16511
6.70812
-6.64875
-3.4544
7.38138
1.11539
-7.38609
7.33315
-7.45903
7.14887
0.0944931
3.62149
4.35595
1.88369
-2.38985
4.27354
-5.06599
7.22882
-8.46619
3.4002
3.95068
-6.51319
-4.51551
5.045
4.0608
5.35556
8.98514
-10.5492
1.56402
-10.8746
12.1699
-1.29533
-16.6648
5.79021
-7.67968
2.69709
0.262176
2.71569
0.67515
2.41256
-3.08771
-2.27836
-2.28206
-2.29893
-3.36111
5.66004
1.1313
-3.35406
2.22276
-3.46645
4.59775
-0.0693861
-3.28468
5.24369
-2.83113
5.50587
-3.53584
1.97003
3.26851
5.5836
-2.31509
4.29351
-1.69082
1.80896
-4.12406
-1.55215
-3.01033
5.1184
-3.27124
3.70531
-0.255666
3.96097
-4.04235
0.987238
-0.626313
3.58818
3.76066
4.24449
-3.11802
2.9241
-4.61492
-1.19996
-4.04173
-0.842954
-0.322679
-3.76303
4.08571
6.07587
-6.39855
-5.28727
9.60602
-4.31875
7.74292
-5.42277
-2.32015
-4.28932
-4.40686
3.90643
1.95121
9.69413
0.209654
-5.63243
-4.97003
-4.01358
3.23102
2.12565
-2.00325
3.64177
2.07821
-0.294892
0.56969
1.10939
1.86949
-1.2998
0.226556
1.64293
-1.2864
2.01434
0.726479
-2.04732
0.0886473
-1.38795
3.48925
1.01512
-2.0354
0.735602
1.00501
-3.4717
4.76516
-2.46755
-2.29762
5.77018
1.14856
-3.61611
4.1228
-3.78681
2.31094
-3.3373
-1.30517
-5.09198
-3.46611
-2.47593
4.69869
-3.18411
5.23694
1.16568
-5.02841
6.19409
-3.55383
1.64579
-3.04022
3.7667
-1.04393
-1.99629
2.75388
2.68718
-2.9155
0.0465868
-0.161625
2.29512
-2.45674
-0.605584
-2.53528
-4.57307
4.90498
-2.10665
4.55257
2.16688
-1.9138
6.46637
1.8115
-3.7253
-3.24839
-3.70976
-1.38109
3.15815
-0.0976933
-3.80576
-5.2629
3.64782
0.5508
-7.00397
7.69744
-0.693461
-3.9838
-0.577745
4.70728
-5.76902
0.0172795
-4.12703
3.57041
4.69482
5.24562
-11.4171
-0.13436
-6.25167
1.20414
-7.45581
5.54434
-3.61488
7.76637
-10.4262
6.97181
-9.31083
6.60163
-0.85418
6.72024
-4.07043
2.82905
-8.56577
-6.95193
4.90008
-2.75324
4.99944
-3.3913
8.39073
-6.01437
5.45078
2.93995
-1.88709
-3.53056
-4.67681
2.78972
0.77397
3.93574
4.9701
-2.85658
4.66094
2.22505
-4.65394
-2.18626
-6.50448
1.85053
-3.35624
-1.91037
3.7609
3.17568
3.76078
1.26125
-3.34471
8.80164
-8.50417
-4.31317
-2.27518
5.49285
-2.70313
5.16056
-7.43574
-0.755483
4.89434
-0.862184
-4.03216
0.82261
-4.3046
1.65646
-5.96107
5.11425
-5.56811
2.19019
-9.86987
-5.1959
-5.09985
-2.23458
-5.22445
-7.65999
5.42541
-1.86978
5.46337
-8.67811
7.81593
-3.49183
8.91724
-5.40343
-1.0351
5.81337
1.3355
10.2527
0.117667
-4.63318
-1.86628
3.99039
-2.12411
1.36474
-3.64537
0.345024
2.41227
3.35791
-6.42372
-0.0894727
-4.72265
-3.9234
7.9842
5.68262
11.7585
1.20933
9.19447
-1.21027
10.4038
4.14529
4.37323
-3.02158
4.5856
1.06414
4.46433
-0.850828
2.82086
1.86486
1.87749
0.824567
2.29811
1.46255
3.28535
0.197633
-2.08443
4.65105
-8.66463
-0.981374
-8.09681
1.09817
5.73636
-4.63818
3.18978
-1.06413
1.06567
0.0756783
-1.68394
1.60826
-2.81432
-1.97883
-0.335902
-1.61862
2.35422
1.87063
-2.01832
-0.795994
0.318072
-3.78419
3.01923
-2.97264
-0.285466
5.90862
-2.71261
0.255867
-1.06682
-2.27941
-2.78852
2.69987
6.17399
0.29238
3.10944
5.19736
3.10338
0.246797
3.87327
-5.73236
-3.69144
-5.86672
-0.322384
4.3849
3.48618
8.98644
6.42614
3.72301
-3.71273
-12.2169
6.5483
-1.96271
5.25297
-1.22082
-4.74025
4.97131
2.2575
-5.54923
-0.0188799
-4.75913
-6.72184
-0.553448
8.36937
-9.69928
8.66418
5.81595
1.34916
-4.40105
-0.6988
4.20836
0.164869
10.5687
-1.1229
-6.87177
7.99466
-4.61346
3.63209
0.865421
2.77635
2.47368
1.40955
-5.46221
-10.1004
-1.92469
-1.54701
-4.2223
0.472374
-2.343
6.27525
-2.64317
3.95511
5.3515
6.41717
-2.18036
-4.21819
6.49911
-2.54401
3.87316
)
;

boundaryField
{
    wall-4
    {
        type            calculated;
        value           uniform 0;
    }
    velocity-inlet-5
    {
        type            calculated;
        value           uniform -3.75095;
    }
    velocity-inlet-6
    {
        type            calculated;
        value           uniform -5.62643;
    }
    pressure-outlet-7
    {
        type            calculated;
        value           nonuniform List<scalar> 8(5.74917 5.68211 6.30371 7.23977 7.00553 6.67574 6.78235 7.07496);
    }
    wall-8
    {
        type            calculated;
        value           uniform 0;
    }
    frontAndBackPlanes
    {
        type            empty;
    }
}


// ************************************************************************* //
