/*--------------------------------*- C++ -*----------------------------------*\
| =========                 |                                                 |
| \\      /  F ield         | OpenFOAM: The Open Source CFD Toolbox           |
|  \\    /   O peration     | Version:  2412                                  |
|   \\  /    A nd           | Website:  www.openfoam.com                      |
|    \\/     M anipulation  |                                                 |
\*---------------------------------------------------------------------------*/
FoamFile
{
    version     2.0;
    format      ascii;
    arch        "LSB;label=32;scalar=64";
    class       volVectorField;
    location    "25";
    object      U;
}
// * * * * * * * * * * * * * * * * * * * * * * * * * * * * * * * * * * * * * //

dimensions      [0 1 -1 0 0 0 0];

internalField   nonuniform List<vector> 
918
(
(0.985164 -0.000507441 0)
(0.00500711 2.96625 0)
(-0.0193268 1.52032 0)
(0.979703 0.0021506 0)
(0.000484396 1.50583 3.59261e-20)
(-0.00703772 2.94879 -1.8403e-18)
(0.846423 1.1871 7.33928e-19)
(0.383898 0.173965 -8.89651e-21)
(0.999907 -0.000289435 0)
(0.0488407 0.850828 0)
(-0.034165 0.647819 0)
(0.735332 -0.00998095 0)
(0.0111151 2.93038 0)
(0.00175023 2.79499 0)
(-0.0175849 3.16382 1.08491e-18)
(0.0278162 1.31382 1.42721e-19)
(0.487196 0.0736939 5.55362e-19)
(0.191448 1.21731 6.37396e-19)
(0.962939 0.00500498 0)
(-0.0202003 1.12721 0)
(0.111584 0.220736 -4.55642e-19)
(1.00202 -0.00498468 0)
(1.00021 -0.0097981 0)
(0.975711 -0.00645299 0)
(0.636943 -0.0421136 0)
(0.0168856 2.6353 0)
(-0.0151032 2.91016 6.33036e-19)
(-0.0339669 1.52585 0)
(-0.0482588 1.67876 0)
(-0.0298727 1.5237 0)
(-0.00891924 1.93979 0)
(0.0218463 1.54122 -2.84038e-20)
(0.014503 1.36395 0)
(-0.0206178 2.98759 -6.42479e-23)
(-0.0166982 3.0053 1.43038e-18)
(0.00210168 3.0002 0)
(0.869982 -0.00952921 0)
(0.40052 0.938631 -3.46586e-20)
(0.822059 1.20658 -1.03036e-18)
(0.970715 1.03965 9.65305e-19)
(0.69061 1.30341 -1.70268e-19)
(0.689778 1.29344 9.52073e-19)
(0.423822 0.267981 8.67997e-21)
(0.415903 0.158669 0)
(1.15818 0.559834 0)
(0.385332 0.274047 4.0331e-20)
(0.335735 0.173306 -4.18562e-20)
(0.919587 -0.0074971 0)
(1.00028 0.000154111 0)
(0.99991 0.000347521 0)
(1.00363 -0.00779636 0)
(1.00096 -0.00097038 0)
(1.00017 1.64025e-05 0)
(0.0818988 1.7785 -1.93121e-19)
(0.0352577 0.986811 0)
(0.102451 0.933268 0)
(0.027028 0.930257 0)
(0.0394431 0.779351 0)
(-0.0729328 1.89176 0)
(-0.00467105 0.75747 0)
(0.00603821 0.623159 0)
(-0.0343598 0.790257 0)
(-0.0388519 0.733751 0)
(0.830522 -0.0124243 0)
(0.853075 0.0217643 0)
(0.765643 0.00233123 0)
(0.833493 0.0241234 0)
(0.717527 -0.0173938 0)
(0.0146948 3.0004 6.73129e-19)
(0.0115092 3.00795 0)
(0.00612398 3.00281 0)
(0.0135374 2.99734 7.49486e-24)
(0.00798777 2.95847 -1.00044e-18)
(0.0144933 2.98208 0)
(0.0108291 2.90359 0)
(0.0246275 2.93064 1.3325e-24)
(0.00435805 2.82524 0)
(0.0311183 2.91595 0)
(-0.00575889 2.74434 0)
(0.311415 3.56434 0)
(-0.132278 3.64647 0)
(0.141222 3.25482 1.00966e-18)
(-0.0117185 2.98767 0)
(-0.0861725 1.86957 0)
(0.0711574 1.48913 -1.4081e-19)
(0.00903164 1.27889 1.97732e-19)
(0.557193 0.156528 -1.91325e-19)
(0.490103 0.0427568 -1.85096e-19)
(0.536473 0.179438 -5.76691e-19)
(0.47471 0.0948076 -3.88439e-19)
(0.219013 0.907325 0)
(0.270622 1.36031 -6.64512e-19)
(0.389957 1.31139 1.0915e-18)
(0.987664 0.00859168 0)
(0.942172 0.00594187 0)
(1.0003 0.000579702 0)
(1.00286 0.00930623 0)
(1.003 0.00843852 -1.0686e-18)
(0.991927 0.00970046 8.06851e-19)
(-0.0480125 1.2345 0)
(-0.0437132 1.03794 0)
(-0.0565293 1.51323 0)
(-0.0391718 1.34757 0)
(-0.0128682 1.22837 0)
(0.165609 0.229493 1.40497e-19)
(0.21466 0.206086 0)
(0.993515 -0.00837691 0)
(0.954358 -0.00644478 0)
(0.798676 0.0286915 0)
(0.762624 0.0393044 0)
(0.691157 -0.032467 0)
(0.970431 -0.00369164 0)
(0.700209 0.0568439 0)
(0.541138 -0.0200192 7.36864e-19)
(-0.0363047 2.86419 3.17682e-19)
(0.0425097 2.90849 0)
(0.0557361 2.88416 0)
(-0.00538343 2.69808 0)
(-0.0129535 2.98536 5.80094e-19)
(-0.0181179 2.89544 0)
(-0.01533 2.98812 -1.83889e-18)
(-0.0133747 2.92525 6.35671e-19)
(-0.0752992 1.74603 0)
(-0.0754255 1.77725 0)
(0.05253 1.50343 3.2379e-21)
(0.0356197 1.49855 0)
(0.00772388 1.33973 0)
(0.937285 -0.0074142 0)
(0.855357 -0.00922604 0)
(0.864685 0.00759803 0)
(0.948678 -0.00776745 0)
(0.883287 -0.00864235 0)
(0.514093 1.13394 3.23159e-20)
(0.565245 1.18732 0)
(0.361636 0.87951 3.98845e-21)
(0.3043 0.740456 0)
(0.930654 1.07847 -2.79472e-19)
(1.04421 0.878227 5.72254e-19)
(0.384074 1.39997 0)
(0.544682 1.37074 0)
(0.547456 1.3311 0)
(0.101319 0.164507 -1.30746e-19)
(0.46709 0.253535 0)
(0.451418 0.149053 1.11693e-19)
(1.01424 0.93227 0)
(1.08217 0.778144 0)
(1.10726 0.720402 -5.02275e-19)
(1.13836 0.619053 0)
(1.18916 0.403841 5.77144e-20)
(0.957278 -0.00866113 0)
(0.962197 -0.0100861 0)
(0.901249 -0.00811598 0)
(0.984134 -0.00915836 0)
(0.974548 -0.00942671 0)
(0.936989 -0.00627046 0)
(1.00017 0.0023378 0)
(1.00088 0.00140903 0)
(0.999912 0.000853786 0)
(0.0337411 2.0335 1.30964e-19)
(0.122388 1.71298 0)
(0.0242342 2.13921 2.1849e-20)
(0.042329 1.85343 -8.72806e-21)
(0.137155 1.20748 -5.28108e-19)
(0.0464732 1.07636 0)
(0.0960436 1.07645 0)
(0.00426336 0.862848 0)
(-0.0100593 0.72016 0)
(-0.0565158 2.12474 3.13864e-21)
(-0.0348794 1.94416 0)
(-0.090525 2.01981 2.04174e-19)
(-0.0973786 1.75774 -4.60329e-21)
(0.0117725 0.82888 0)
(0.0198527 0.784463 0)
(0.00242425 0.66638 0)
(-0.0509923 0.868506 0)
(-0.0442443 0.812715 0)
(0.926214 0.00975167 0)
(0.840674 -0.00828607 0)
(0.919478 -0.000252952 0)
(0.836373 -0.0118415 0)
(0.813746 0.00551627 0)
(0.904099 0.0171913 0)
(0.882069 0.0201503 0)
(0.789255 0.0034189 0)
(0.0057237 3.06475 -5.89089e-21)
(0.0165541 3.05802 0)
(0.014698 2.96912 0)
(0.00852146 2.87628 0)
(0.930371 3.98478 0)
(1.24629 3.31598 1.01538e-18)
(0.0710507 3.07972 0)
(-0.0269958 2.90916 0)
(-0.112529 1.76825 0)
(-0.117603 1.84729 0)
(-0.0928418 1.80757 0)
(-0.0365202 1.93911 1.10874e-21)
(-0.0991863 1.9 0)
(-0.0626068 1.89026 0)
(-0.0439332 1.42077 9.09839e-22)
(0.00650155 1.57052 -2.44661e-19)
(0.0555258 1.501 -2.02171e-19)
(-0.0231566 1.29682 0)
(0.586648 0.124442 2.80136e-19)
(0.505584 0.0162745 -2.73572e-19)
(0.259369 1.53743 0)
(0.261532 0.679623 -2.06817e-19)
(0.176021 1.62803 -6.93469e-19)
(0.227222 1.15819 6.95234e-19)
(0.90277 0.00664825 0)
(0.967649 0.0109038 0)
(0.974772 0.0108108 0)
(0.923722 0.00670477 0)
(-0.0659281 0.976116 0)
(-0.0551181 1.10783 0)
(-0.0592128 0.93101 0)
(0.331638 0.266245 3.68595e-19)
(0.27496 0.244124 -4.46386e-19)
(0.283574 0.188416 0)
(1.09743 0.086528 -4.36221e-21)
(1.08156 0.0403376 0)
(1.00937 0.0408714 0)
(0.906353 0.00326266 0)
(0.609515 0.0957022 0)
(0.640391 0.0694167 -1.18652e-18)
(0.52121 0.00140524 4.53492e-19)
(0.00947906 2.98152 4.05942e-19)
(-0.0326712 2.86693 4.76405e-20)
(0.00375668 3.05016 -1.27464e-20)
(0.0200688 3.04351 4.5897e-19)
(-0.0150252 2.99656 2.11558e-20)
(-0.0129843 2.94947 -8.56913e-23)
(-0.0172648 3.01198 -4.02018e-19)
(0.0148068 3.02398 2.90508e-19)
(0.00730479 3.03671 -4.53265e-19)
(0.929795 -0.00117035 0)
(0.937136 -0.00353987 0)
(0.843521 -0.00766784 0)
(0.957007 0.0113868 0)
(0.943667 0.0124946 0)
(0.88277 0.00638689 0)
(0.919742 0.0154089 0)
(0.927752 0.0144134 0)
(0.840355 0.00646184 0)
(0.720992 1.41653 3.32328e-19)
(0.755743 1.5269 0)
(0.214154 0.354724 2.46684e-20)
(0.178739 0.621274 2.09718e-19)
(0.260247 0.702469 -1.18651e-19)
(0.262032 0.567438 2.2088e-19)
(0.30553 0.723788 7.44934e-19)
(0.1131 0.195004 2.13927e-19)
(0.518231 0.202302 -4.01144e-19)
(0.498809 0.230267 1.05297e-19)
(0.469906 0.125351 2.1065e-19)
(1.1777 0.460674 3.0225e-19)
(1.1923 0.256135 3.14371e-19)
(0.0113472 2.15032 -1.22113e-20)
(0.0482405 1.92532 0)
(0.961271 0.0316222 0)
(0.93028 0.0178989 0)
(0.862936 -0.00657541 0)
(0.0110606 3.07452 0)
(0.0198047 2.94404 7.83528e-19)
(0.0165104 2.9564 0)
(0.0061856 2.85078 -7.77238e-19)
(0.00612429 3.09106 1.85212e-19)
(0.00736425 3.08269 0)
(0.789521 1.8314 -2.4074e-19)
(1.25384 2.51311 6.63797e-19)
(0.772129 1.97204 -1.49752e-18)
(0.0208046 2.9829 -2.94697e-19)
(0.0369137 3.00511 0)
(-0.0326094 2.88094 0)
(-0.112034 1.85451 -1.59043e-20)
(-0.045465 1.70071 -2.41272e-21)
(-0.0689168 1.58548 -1.51665e-20)
(0.275256 1.34607 6.74556e-19)
(0.211067 0.455798 -4.65155e-19)
(0.0625549 1.95949 4.46348e-19)
(0.136896 1.84931 -5.64663e-19)
(0.178568 1.45167 8.6372e-20)
(0.00209401 3.1186 -1.08755e-18)
(0.0168233 3.11784 1.16425e-18)
(-0.00878021 2.98125 5.00501e-19)
(-0.00304214 2.97772 -4.41119e-19)
(-0.0212689 2.88197 -5.09745e-19)
(0.00873931 3.09966 -1.35506e-18)
(0.00246364 3.10624 1.31812e-18)
(0.24515 0.638158 0)
(0.201846 0.628021 -3.97174e-19)
(0.106362 0.21112 1.80488e-19)
(0.328196 0.844827 6.42594e-19)
(0.173593 0.235043 -9.83546e-19)
(1.184 0.173257 -6.00304e-20)
(1.19188 0.309199 0)
(1.17267 0.121025 1.23363e-19)
(-0.0416164 2.17331 2.5735e-21)
(-0.0055663 2.17915 0)
(0.0187184 1.9646 0)
(0.337276 1.24157 -2.44912e-19)
(0.353399 1.0579 -5.20712e-19)
(0.185755 0.328986 8.95287e-19)
(1.00583 -0.0109385 0)
(1.00763 -0.00766528 1.94749e-19)
(-0.096656 1.69958 0)
(-0.103452 1.68874 0)
(1.00223 0.00354022 1.84281e-21)
(1.00364 0.00937211 4.01159e-19)
(-0.0299322 1.96116 -1.42127e-21)
(-0.0143709 1.98204 0)
(0.0383743 3.18166 1.0773e-19)
(0.399742 3.49906 0)
(1.12459 0.64386 6.82313e-20)
(1.01301 0.0130702 -2.04588e-21)
(1.02104 -0.0106216 0)
(1.00173 0.000105352 9.85278e-23)
(0.106661 1.35925 0)
(0.137199 2.57526 0)
(-0.0171476 1.04899 0)
(-0.0293952 2.6576 -2.51487e-19)
(-0.207588 2.62058 -2.45542e-19)
(1.00765 0.0266381 2.67792e-21)
(1.05578 -0.00414409 0)
(1.0794 0.0239601 0)
(-0.134493 1.84535 0)
(-0.0600543 2.16988 0)
(-0.207715 1.46495 0)
(0.279065 1.46725 -4.4086e-19)
(1.01123 -0.0096852 0)
(1.00937 -0.015016 0)
(1.00252 0.000654592 2.48603e-19)
(1.00548 -0.00492992 -2.92517e-19)
(1.00121 -0.00103645 0)
(-0.178507 1.792 0)
(-0.135016 1.70271 0)
(-0.139769 1.76343 0)
(-0.185884 1.48322 0)
(-0.138511 1.5982 0)
(-0.135987 1.55469 0)
(1.03453 -0.00724961 0)
(1.02068 0.015126 -1.08504e-21)
(0.781851 1.25758 5.23717e-19)
(1.00218 0.000364131 -2.4644e-19)
(1.00411 0.00526933 2.92401e-19)
(1.00117 0.00206229 0)
(1.01292 0.0102739 2.41632e-19)
(1.00796 0.00817363 -3.00242e-19)
(1.00874 0.0145296 0)
(-0.045445 2.15672 0)
(-0.0292345 2.0555 -7.21321e-20)
(-0.0160057 2.07151 6.09262e-20)
(1.19638 0.259815 -8.49838e-20)
(1.1342 0.0890446 0)
(0.0491237 3.07717 -5.02976e-19)
(0.0674064 2.85182 -4.01748e-20)
(0.145813 3.19542 8.07381e-19)
(0.140425 3.22484 2.62034e-21)
(0.138197 3.23919 0)
(0.0215114 3.13814 1.08619e-19)
(0.0794664 3.16149 4.89727e-19)
(0.0720968 3.18835 -2.10007e-19)
(0.0244385 3.12915 0)
(0.658776 0.32393 0)
(0.578902 0.372639 0)
(1.09602 0.673699 -2.59644e-19)
(1.09428 0.808086 -9.7086e-20)
(1.15455 0.563619 0)
(1.18534 0.509789 0)
(1.01616 0.0131917 -4.46828e-19)
(1.01499 0.0140676 -1.57243e-21)
(1.02504 -0.0105308 0)
(1.02306 -0.0123614 0)
(1.0067 0.00239102 0)
(1.01061 0.00361315 0)
(1.00442 0.00174104 0)
(1.00986 0.00626113 0)
(1.00787 0.00588743 0)
(1.00444 0.00441828 0)
(0.0954527 1.35855 0)
(0.0926216 1.3108 0)
(0.117103 1.38465 0)
(0.142191 1.40493 0)
(0.143519 2.59667 0)
(0.187377 2.65491 -1.96581e-19)
(0.102073 2.6526 0)
(0.0764765 2.65775 -2.46296e-20)
(0.0331468 2.67418 2.26577e-19)
(-0.0346914 1.01751 0)
(-0.0918846 0.956559 0)
(0.0861484 1.07129 0)
(0.0543447 1.00619 0)
(0.0416438 2.17536 4.08588e-19)
(-0.185463 2.65298 -3.31561e-19)
(-0.0894325 2.70546 -3.94586e-19)
(-0.144436 2.68356 0)
(-0.217097 2.6363 6.33689e-19)
(-0.219953 2.57915 4.04242e-19)
(0.0737752 2.22989 -2.77735e-19)
(-0.163508 2.58909 4.68379e-19)
(-0.0855589 2.55986 4.76843e-19)
(1.01602 0.0342161 4.43407e-19)
(1.00866 0.0209432 2.14493e-21)
(1.00806 0.0361792 -4.53667e-19)
(0.990122 0.0156427 5.87747e-19)
(1.05635 0.000511644 0)
(1.04381 -0.0136809 0)
(1.07802 0.0294265 0)
(1.06192 0.00600112 0)
(1.05833 -0.00186591 0)
(1.1183 0.0799287 0)
(1.09067 0.0460154 0)
(1.09232 0.0389044 0)
(-0.0985235 1.96034 6.96043e-22)
(-0.161381 1.9134 0)
(-0.114431 1.91535 0)
(-0.112399 2.27785 -7.65874e-20)
(-0.100437 2.30028 5.48738e-21)
(-0.286061 1.85856 -3.61821e-20)
(-0.208699 1.79562 3.66673e-20)
(-0.256065 1.62316 0)
(-0.217531 1.671 0)
(-0.185564 1.69021 0)
(-0.242748 1.39228 0)
(-0.145616 1.26039 0)
(0.37204 1.47877 8.39643e-19)
(0.404251 1.49216 3.3219e-19)
(0.591412 2.43672 -1.5337e-19)
(0.408752 2.53066 4.18559e-19)
(0.354864 2.08552 -4.99378e-20)
(1.021 -0.0086098 0)
(1.01546 -0.0100037 0)
(1.01477 -0.0156412 0)
(1.00784 -0.00143863 0)
(1.00489 -0.00121795 0)
(1.00771 -0.00486893 0)
(1.0092 -0.00371133 0)
(1.01405 -0.00455574 0)
(1.02151 0.0156455 4.24684e-19)
(1.01784 0.0156936 -5.47554e-19)
(1.02225 0.0176458 -4.24779e-19)
(1.01936 0.0165823 5.31795e-19)
(0.752158 1.30839 0)
(0.687108 1.36247 6.16645e-19)
(0.860094 1.1999 3.62185e-19)
(0.906023 1.15604 -4.81907e-19)
(1.15663 2.61799 -5.56095e-19)
(0.833423 0.100424 2.88602e-19)
(1.13487 0.102818 0)
(1.17823 0.183848 7.26832e-20)
(1.16338 0.157923 3.20648e-21)
(0.992469 0.125994 0)
(0.142344 2.96418 1.36922e-19)
(0.120722 2.86974 -6.56637e-19)
(0.0319633 2.36348 4.69356e-19)
(0.0971735 0.056048 -1.9663e-19)
(0.344406 3.42765 -4.41269e-19)
(0.197827 3.31867 0)
(0.239869 3.36213 5.74672e-19)
(0.251596 3.0375 -7.64032e-19)
(0.346208 3.19722 0)
(0.00661394 3.12088 2.55993e-20)
(0.0166347 3.12979 -3.28051e-19)
(0.0149663 3.12576 4.82835e-19)
(0.0371049 3.14015 0)
(0.0358055 3.1512 0)
(1.21979 2.61904 0)
(0.544123 0.844074 -2.38714e-19)
(1.02507 0.983869 -2.068e-19)
(0.963349 1.05102 0)
(0.807188 0.950636 5.64052e-20)
(1.04767 0.86542 3.00071e-20)
(0.38968 0.426846 -5.24595e-19)
(0.699411 0.337857 -2.395e-20)
(0.685552 0.263221 2.26418e-19)
(0.592425 0.403833 1.75245e-20)
(0.521502 0.380237 -7.16816e-19)
(0.669394 0.357554 0)
(0.691531 0.431832 3.71356e-19)
(0.695332 0.430656 0)
(0.628087 0.390926 0)
(0.614751 0.323992 0)
(0.777185 0.604179 1.28855e-19)
(1.19408 0.27779 -5.50247e-20)
(1.19001 0.413353 0)
(1.20247 0.361923 0)
(0.770873 0.203307 3.31765e-19)
(0.823792 0.541908 -1.84176e-19)
(0.732146 0.512193 -2.99236e-19)
(0.91753 0.418395 -2.78283e-19)
(1.01983 0.0144802 2.9454e-19)
(1.01796 0.0140394 -3.00647e-19)
(1.01594 0.0154296 0)
(1.03534 -0.00657922 0)
(1.02934 -0.00895185 -2.69697e-19)
(1.02706 -0.0130636 2.66861e-19)
(1.02526 0.0093791 0)
(1.02402 0.0128363 0)
(1.01142 0.0038963 0)
(1.01434 0.00861982 0)
(1.01521 0.00333806 0)
(1.01414 0.00257805 0)
(0.0815676 1.33576 0)
(0.0890897 1.22657 0)
(0.138599 1.34804 3.41056e-19)
(0.26201 1.46405 2.52058e-19)
(0.163035 1.43578 5.36293e-19)
(0.190198 1.443 -2.88071e-19)
(0.177577 1.37325 0)
(0.129401 1.60279 2.83847e-19)
(0.0892709 1.56388 0)
(0.354368 2.04231 7.25635e-20)
(0.352511 2.36687 2.26212e-19)
(0.173305 1.45043 -2.47821e-19)
(0.267164 1.36038 1.9149e-19)
(0.19737 1.35587 1.53577e-19)
(0.279708 1.30213 3.20252e-19)
(0.252022 1.58277 -2.04369e-19)
(0.252046 1.62326 -2.11971e-19)
(0.050103 2.27189 1.04542e-19)
(0.0460833 2.66809 0)
(0.0580467 2.39021 -1.80053e-19)
(0.0344144 2.41007 0)
(0.071137 2.66111 2.59838e-20)
(0.0532263 2.69326 0)
(0.0825855 1.4728 4.93715e-19)
(0.210713 1.63413 0)
(0.196536 1.36593 0)
(0.126057 1.31791 -5.46792e-19)
(-0.0361531 2.67841 -3.98972e-20)
(0.0428491 2.68651 -3.0134e-19)
(-0.0103658 2.72251 -2.05046e-21)
(-0.24078 2.20667 -3.33324e-19)
(0.00090267 2.01687 1.99415e-19)
(-0.114873 1.01953 0)
(-0.0850802 0.983528 0)
(0.132888 1.69593 -5.06451e-19)
(0.182695 1.48967 -5.27272e-19)
(0.163283 1.66027 6.59003e-19)
(0.105104 1.6818 0)
(-0.251208 2.13323 2.98266e-19)
(-0.206881 2.30303 -1.27397e-19)
(-0.239415 2.34342 4.52402e-20)
(-0.270365 2.13398 4.04481e-19)
(-0.257091 2.49385 1.06896e-19)
(-0.250224 2.52066 -4.68229e-19)
(1.02121 0.0212103 -2.88661e-19)
(1.01808 0.0271768 2.91152e-19)
(1.01443 0.0190391 0)
(1.0149 0.05218 4.18091e-19)
(0.996064 0.0422696 -4.92818e-19)
(0.962738 0.0243671 5.71476e-19)
(1.01383 0.0862709 -5.40201e-20)
(1.04142 -0.00683188 0)
(1.04719 -0.0053 2.40253e-19)
(1.03716 -0.0117556 -2.40113e-19)
(1.06438 0.0365507 -1.31438e-20)
(1.05696 0.0153981 1.17586e-19)
(1.06215 0.0480838 0)
(1.05786 0.0398559 -4.40461e-20)
(1.0388 0.0331849 0)
(1.03367 0.0303348 0)
(1.02704 0.0124782 0)
(1.02465 0.0150926 0)
(1.04547 0.0256932 9.16774e-20)
(1.0414 0.0181098 -2.09262e-19)
(1.05355 0.021229 -9.22901e-20)
(1.05196 0.0229473 -1.07318e-19)
(1.06836 0.0570745 1.90341e-19)
(1.08129 0.0507957 0)
(1.08844 0.0950486 0)
(-0.248535 2.10603 7.66827e-20)
(-0.198486 1.94896 3.27463e-21)
(-0.206323 1.97832 0)
(-0.142172 2.10484 -7.66143e-20)
(-0.0981305 2.00049 -3.97263e-21)
(-0.121306 2.04673 1.15162e-20)
(-0.201552 2.5634 -3.67792e-19)
(-0.216124 2.43431 1.94921e-20)
(-0.261622 2.4787 -1.10191e-19)
(-0.163604 2.44759 2.00288e-19)
(-0.172927 2.459 2.80051e-20)
(-0.362626 1.74763 -7.05867e-21)
(-0.317362 1.88116 -1.00715e-19)
(0.365179 1.40685 -4.13831e-19)
(0.362584 1.35198 -3.96775e-19)
(0.637186 1.41096 -5.96375e-19)
(0.507185 1.47496 -3.20264e-19)
(0.55545 1.45039 0)
(0.588274 2.40965 1.22516e-19)
(0.654957 2.3991 2.2306e-19)
(0.413591 2.50642 7.9741e-20)
(0.407361 2.55127 -1.60075e-19)
(0.515729 2.50882 2.64271e-19)
(0.545995 2.44963 0)
(0.48995 2.49684 -3.5011e-19)
(0.249347 2.58204 5.73675e-19)
(0.356443 2.55551 -8.00913e-20)
(0.286525 2.63988 -8.79598e-19)
(0.927094 2.38143 2.24152e-19)
(0.826044 2.3769 0)
(1.0105 0.000100779 9.80747e-21)
(1.01482 -0.00562836 -7.98083e-21)
(1.0177 -0.00379182 -1.44397e-19)
(1.01478 -0.000752681 1.4475e-19)
(1.0121 0.000914136 0)
(0.623555 1.28033 0)
(0.6354 1.15755 0)
(0.735027 1.06985 0)
(0.627474 1.12718 0)
(1.18477 2.63468 5.73846e-20)
(1.07332 2.37211 0)
(0.844514 2.22544 -1.79357e-21)
(0.826165 2.47937 0)
(0.920979 2.56519 2.65936e-20)
(0.957471 2.51849 0)
(0.841918 0.147405 0)
(0.811602 0.138754 8.32546e-20)
(0.927041 0.123674 4.25822e-19)
(0.862045 0.116984 -1.70534e-19)
(0.84533 0.0643322 -5.12609e-19)
(1.04627 0.21814 -2.38422e-19)
(0.96224 0.272973 -1.56971e-20)
(0.905165 0.271891 3.87887e-19)
(0.979606 0.199537 2.85445e-19)
(0.939369 0.160064 -5.35371e-19)
(0.91261 0.169049 6.94238e-20)
(0.940439 0.232397 -1.34284e-19)
(0.916821 0.19209 0)
(0.976705 0.157994 -2.56394e-19)
(1.0236 0.166199 0)
(1.01664 0.192133 0)
(1.08161 0.110791 7.99649e-20)
(1.04824 0.158985 -1.30674e-20)
(1.04069 0.221394 -1.24564e-19)
(1.076 0.192992 0)
(1.02764 0.0350413 2.18378e-19)
(1.04724 0.047929 2.59264e-19)
(1.04137 0.0340239 -2.1772e-19)
(1.0472 0.0538436 -1.74615e-19)
(1.02447 0.0577448 -2.94175e-19)
(0.977894 0.127987 0)
(0.996166 0.0805123 0)
(0.969802 0.0428914 -2.07128e-19)
(0.930073 0.0594615 8.62505e-20)
(1.0346 0.0865295 2.45369e-19)
(1.05266 0.111778 -2.46206e-19)
(1.05803 0.139073 2.25719e-19)
(1.0233 0.126859 0)
(1.06223 0.0997869 0)
(1.05049 0.0807909 -1.02578e-19)
(1.04516 0.0832194 -1.96278e-19)
(0.579925 1.08671 -9.54419e-20)
(0.618142 1.43531 1.97693e-19)
(1.15906 2.75568 1.03427e-19)
(1.22634 3.09405 -7.10461e-20)
(1.2499 2.73449 5.67081e-19)
(1.28218 2.71827 -3.42076e-19)
(1.20957 2.35625 -8.66005e-21)
(1.21264 2.99819 1.96024e-19)
(1.23082 2.96341 -2.17611e-19)
(1.21853 3.24776 -2.69067e-19)
(1.38061 2.98012 3.725e-19)
(1.37331 2.89763 0)
(0.53776 0.85303 -1.32e-20)
(0.154381 1.27501 3.74921e-19)
(0.526028 0.492785 3.4506e-19)
(0.365166 0.259151 3.76242e-19)
(0.540057 0.404347 4.02668e-19)
(0.549654 0.487698 -6.23855e-19)
(0.551498 0.489675 5.12376e-19)
(0.507366 0.430361 -2.07692e-19)
(0.444985 0.367423 4.77307e-19)
(0.774978 0.254534 5.71746e-19)
(0.735585 0.288745 0)
(0.727963 0.225519 1.09009e-20)
(0.717619 0.519113 1.90153e-19)
(0.684214 0.488443 -7.02367e-19)
(0.609455 0.481016 1.75442e-20)
(0.621048 0.471656 0)
(0.671153 0.721498 1.49105e-19)
(0.80553 0.756168 5.77499e-20)
(0.73139 0.832445 -7.52565e-20)
(0.847073 0.792722 -1.62481e-20)
(0.877518 0.834331 1.44803e-20)
(0.8864 0.835021 -1.48268e-20)
(0.819061 0.636746 -2.20862e-19)
(0.896348 0.691998 1.51082e-20)
(0.949365 0.702507 0)
(0.939686 0.678211 -1.31384e-20)
(0.988814 0.313181 6.08127e-20)
(1.10574 0.286373 -2.36402e-22)
(1.03041 0.253266 9.74141e-20)
(0.969874 0.345395 -1.4054e-19)
(1.01621 0.408584 0)
(1.06907 0.398696 0)
(0.892475 0.353104 5.08228e-21)
(0.836263 0.285016 0)
(0.853173 0.277121 2.00268e-19)
(0.888381 0.279118 -6.00376e-21)
(0.90936 0.421958 7.6096e-19)
(0.868682 0.485958 1.92791e-19)
(0.870585 0.450513 -2.49754e-19)
(0.801229 0.437807 -2.68006e-19)
(0.785681 0.439227 1.8331e-19)
(0.752991 0.423605 -1.79858e-19)
(1.02717 -0.000632625 2.30611e-19)
(1.01996 -0.00010883 0)
(1.01842 0.000975442 1.54257e-19)
(1.02205 -0.00184168 -3.21479e-21)
(1.02215 0.00395873 1.68453e-19)
(1.02036 0.0107532 -3.53672e-19)
(1.02137 0.0102903 0)
(1.02103 0.0105748 -7.47379e-20)
(1.01582 0.00744347 1.87353e-19)
(1.01665 0.0100783 -9.39714e-20)
(1.01761 0.00922866 6.92998e-20)
(0.0925756 1.14431 0)
(0.196459 1.26077 0)
(0.0887288 1.23428 0)
(0.0755823 1.08949 0)
(0.0895169 1.38578 -7.04189e-19)
(0.0887649 1.36023 2.23145e-19)
(0.100812 1.48622 1.60703e-19)
(0.0786927 1.37671 -1.84161e-19)
(0.160072 1.50338 4.64549e-19)
(0.145276 1.47587 -3.57433e-19)
(0.108321 1.3688 -2.09082e-20)
(0.148331 1.3792 -6.05591e-19)
(0.166829 1.32095 7.04718e-20)
(0.184387 1.34097 -6.35334e-20)
(0.0957189 2.37607 1.99119e-19)
(0.095306 2.43114 0)
(0.169524 2.07219 -5.21863e-20)
(0.0732088 1.72075 -1.21473e-19)
(0.227986 2.06252 3.09419e-20)
(0.217106 2.45332 0)
(0.270203 2.40616 -1.09286e-19)
(0.30589 2.40644 7.79854e-20)
(0.243758 2.00884 1.25915e-19)
(0.156567 2.18565 -1.49277e-21)
(0.141305 2.31246 0)
(0.091293 1.94392 4.86895e-19)
(-0.0155822 2.46841 5.80044e-19)
(0.05081 2.27722 0)
(0.0175657 2.46392 -2.37258e-20)
(0.00643335 2.32075 -2.24923e-19)
(-0.0274711 1.30408 -8.75085e-20)
(-0.123718 1.2419 1.40414e-18)
(-0.150136 1.31708 -3.4426e-19)
(-0.0537155 1.41993 -5.31995e-19)
(0.0717344 1.49892 0)
(-0.22685 1.20983 0)
(-0.232214 1.21446 -2.42613e-19)
(-0.292899 1.25828 7.79173e-20)
(-0.234366 1.21453 0)
(-0.168542 1.08866 -2.07405e-19)
(-0.142522 1.11096 3.81552e-19)
(1.0414 0.00700714 0)
(1.04455 0.00338317 -2.25147e-20)
(1.04161 0.0156425 -1.6648e-19)
(1.04986 0.0112811 0)
(1.0498 0.00989912 0)
(1.03576 0.00745699 -6.26883e-21)
(1.03166 0.00910772 2.74284e-19)
(1.03163 0.0129685 3.31337e-19)
(1.0265 0.0186064 0)
(1.02459 0.0196524 0)
(1.03679 0.0203432 1.67454e-19)
(1.02886 0.0250321 0)
(1.02706 0.0235789 0)
(-0.394639 2.14566 0)
(-0.370154 1.92038 -3.15926e-20)
(-0.388014 2.06992 -7.11179e-20)
(-0.316056 1.40214 0)
(-0.431474 1.83831 -1.34998e-19)
(-0.384088 1.69034 3.35741e-20)
(-0.360652 1.4886 0)
(0.385411 1.69434 0)
(0.362591 1.28047 6.52023e-19)
(0.302214 1.33651 0)
(0.411762 1.2738 -4.55582e-19)
(0.458968 1.44181 0)
(0.437827 1.38843 3.96977e-19)
(1.02838 2.70517 -4.09834e-21)
(0.951759 2.41647 -2.97308e-19)
(0.891145 2.17288 3.22116e-19)
(0.83833 2.3708 1.18466e-19)
(0.844218 2.52016 0)
(0.911092 2.51407 0)
(0.906767 2.37516 0)
(0.894795 2.35105 -4.49179e-19)
(0.690125 2.49581 -8.28429e-21)
(0.800232 2.48785 -1.23368e-20)
(0.811224 2.46025 9.44682e-21)
(0.688123 2.37902 0)
(0.791097 2.37803 0)
(0.751876 2.38749 -2.26072e-19)
(0.769026 2.50679 0)
(0.587819 1.08884 0)
(0.48759 0.943257 1.05218e-21)
(0.542193 0.970848 -1.2739e-21)
(0.516327 1.0665 0)
(0.518797 1.02339 1.13203e-21)
(0.753806 0.852847 1.41888e-20)
(0.762185 0.99697 0)
(0.737093 0.953905 -6.48196e-20)
(0.616533 1.02031 0)
(0.626594 0.93597 0)
(1.16329 2.77616 5.76723e-20)
(1.14163 2.84035 1.24835e-19)
(0.93464 2.36722 -2.85244e-19)
(0.901168 2.3423 3.16233e-20)
(1.12659 2.74844 0)
(1.07807 2.71903 -4.33575e-20)
(1.08399 2.49614 -7.63675e-20)
(0.980651 2.23291 -2.95421e-20)
(0.495243 1.37086 0)
(0.50425 1.07577 8.4147e-20)
(0.542349 1.15011 0)
(0.859092 0.21808 0)
(0.819803 0.170739 0)
(0.776576 0.160499 0)
(0.850065 0.224001 -3.14972e-19)
(0.794188 0.222867 1.94846e-19)
(0.938633 0.0505512 -1.77082e-19)
(0.952844 0.0992939 0)
(0.925353 0.104539 7.94122e-20)
(0.886417 0.0813933 3.25496e-19)
(0.872621 0.0460965 -1.99713e-19)
(1.16818 3.37292 -9.82726e-19)
(1.21449 3.29236 0)
(1.16757 3.39954 -1.93216e-18)
(0.654036 3.55948 1.65936e-18)
(0.882213 3.12459 3.74853e-19)
(0.516482 0.881193 2.35012e-19)
(0.440222 0.875281 0)
(0.35785 0.526357 -8.46055e-20)
(0.458134 0.69003 -3.87291e-19)
(0.532481 0.492501 -1.11246e-19)
(0.513107 0.526709 1.30704e-19)
(0.655372 0.533845 2.65869e-19)
(0.683136 0.556265 0)
(0.643424 0.616014 0)
(0.595311 0.553874 0)
(0.947712 0.584295 -5.46627e-20)
(0.87217 0.531643 -1.86319e-19)
(0.898885 0.565437 8.57614e-20)
(0.926831 0.501766 -1.36432e-19)
(1.03062 0.465234 0)
(1.04269 0.554534 -4.63104e-21)
(0.826718 0.389481 -4.04118e-19)
(0.831817 0.372599 6.0657e-19)
(0.782141 0.388659 3.17159e-19)
(0.775381 0.354398 -3.59906e-19)
(0.83145 0.306018 -2.65585e-19)
(0.785603 0.307042 3.26729e-19)
(1.02616 0.0055733 -1.78633e-19)
(1.02594 0.00591732 3.66202e-19)
(1.02983 -0.000955613 2.18188e-19)
(1.03312 0.00098431 -2.66414e-19)
(1.03338 0.00633883 0)
(1.02994 0.00685229 -4.28912e-19)
(0.0641456 1.67613 -6.31802e-20)
(0.0837008 1.60216 0)
(0.0646352 1.70453 -5.19226e-19)
(0.0678956 1.68123 4.77105e-19)
(0.0882557 1.50704 -2.92678e-19)
(0.120492 1.51035 0)
(-0.377955 2.1281 0)
(-0.347854 1.68734 1.06921e-19)
(-0.443479 1.65865 -9.72659e-20)
(-0.416041 1.84665 -4.15467e-20)
(-0.384082 2.17261 1.55804e-19)
(-0.379116 2.19256 2.6875e-19)
(0.490092 1.38088 4.25598e-19)
(0.482158 1.3863 4.94047e-19)
(0.430651 1.27223 4.24575e-19)
(0.421832 1.29446 -2.61783e-20)
(0.612027 1.27785 0)
(0.533745 1.37556 5.40054e-19)
(0.551314 1.38854 -5.25484e-19)
(0.439528 1.25845 -4.10293e-19)
(0.49126 1.21353 0)
(0.547544 1.18005 0)
(0.65523 2.45291 1.21716e-20)
(0.667299 2.47617 5.23076e-19)
(0.71665 2.49353 -3.60062e-19)
(0.624107 2.47601 -1.19286e-19)
(0.559873 2.57087 9.83579e-20)
(0.513393 2.5433 -2.96696e-19)
(0.96482 2.37657 -1.73043e-19)
(1.00817 2.39822 0)
(0.906129 2.14991 -2.42682e-19)
(1.0464 2.69956 0)
(1.04814 2.68667 0)
(0.626437 2.28874 2.36751e-19)
(1.04824 3.17346 4.81061e-19)
(0.919312 3.04208 -4.25509e-19)
(0.292269 0.953658 0)
(0.344058 0.823759 -1.58113e-19)
(0.499532 0.779235 -5.45505e-19)
(0.404542 2.03572 0)
(0.471729 2.79002 -2.60926e-19)
(0.432911 2.55488 0)
(0.682636 0.667314 -3.09145e-19)
(0.753029 0.663947 3.92479e-19)
(0.7751 0.615824 2.78044e-19)
(0.671211 0.641643 4.60251e-20)
(0.717645 0.593608 -1.88069e-19)
(1.00856 2.77974 -3.65724e-19)
(1.04164 2.83493 2.87578e-19)
(0.651938 2.18267 5.95364e-20)
(0.609447 1.73675 -7.29048e-20)
(0.704636 1.92577 1.12104e-19)
(0.992845 2.46265 -6.8042e-20)
(0.995465 2.45992 -1.63789e-19)
(0.675516 1.87176 -5.1782e-21)
(0.461477 1.35323 -1.17665e-19)
)
;

boundaryField
{
    wall-4
    {
        type            noSlip;
    }
    velocity-inlet-5
    {
        type            fixedValue;
        value           uniform (1 0 0);
    }
    velocity-inlet-6
    {
        type            fixedValue;
        value           uniform (0 3 0);
    }
    pressure-outlet-7
    {
        type            zeroGradient;
    }
    wall-8
    {
        type            noSlip;
    }
    frontAndBackPlanes
    {
        type            empty;
    }
}


// ************************************************************************* //
