/*--------------------------------*- C++ -*----------------------------------*\
| =========                 |                                                 |
| \\      /  F ield         | OpenFOAM: The Open Source CFD Toolbox           |
|  \\    /   O peration     | Version:  2412                                  |
|   \\  /    A nd           | Website:  www.openfoam.com                      |
|    \\/     M anipulation  |                                                 |
\*---------------------------------------------------------------------------*/
FoamFile
{
    version     2.0;
    format      ascii;
    arch        "LSB;label=32;scalar=64";
    class       volScalarField;
    location    "32";
    object      p;
}
// * * * * * * * * * * * * * * * * * * * * * * * * * * * * * * * * * * * * * //

dimensions      [0 2 -2 0 0 0 0];

internalField   nonuniform List<scalar> 
918
(
0.510434
1.16103
0.00234795
0.509717
-0.0284036
1.12806
-0.548342
0.68135
0.490548
-0.133639
-0.0715489
0.484478
0.988749
0.756525
-1.1759
0.0432462
0.632364
-0.42576
0.489543
-0.169747
0.714132
0.497161
0.500198
0.490789
0.550785
0.736747
0.869859
-0.0743348
-0.0074373
-0.0458824
-0.0614691
-0.0940518
-0.0791537
1.01169
1.0628
1.08549
0.459024
0.285331
-0.407236
-0.47902
-0.470016
-0.597194
0.673027
0.675067
-0.215142
0.681857
0.691704
0.477811
0.489912
0.490808
0.491917
0.490858
0.492261
0.369294
-0.142284
-0.171723
-0.111948
-0.104641
0.0448547
-0.0729958
-0.0782207
-0.0704826
-0.0798791
0.410968
0.480745
0.477834
0.489106
0.496639
1.10058
1.07248
1.09862
1.01237
1.02883
0.9667
0.939313
0.775898
0.797558
0.743329
0.730262
-1.61417
-2.57742
-0.579512
-0.324756
-0.0454668
0.0587664
0.0493735
0.623035
0.6233
0.633154
0.645584
1.03192
-0.421666
-0.547647
0.489688
0.488477
0.496863
0.497554
0.493563
0.492658
-0.171465
-0.153737
-0.13703
-0.16863
-0.152693
0.702885
0.701823
0.491333
0.488354
0.504131
0.524063
0.516204
0.245365
0.555782
0.570629
0.558402
0.725093
0.720542
0.728656
0.843388
0.807601
0.90683
0.929949
-0.0494393
-0.04332
0.0778313
-0.00210982
0.030422
0.454992
0.447761
0.473604
0.462365
0.464769
0.200529
0.0648906
0.371743
0.397228
-0.317816
-0.38104
-0.482016
-0.501043
-0.612647
0.553985
0.661167
0.662113
-0.234675
-0.15508
-0.292709
-0.0816427
-0.143369
0.468269
0.475132
0.47022
0.485549
0.480066
0.481999
0.494133
0.49122
0.492776
0.432326
0.556576
0.296294
0.263041
-0.286102
-0.19034
-0.28776
-0.0932457
-0.0874675
0.0494322
0.0674927
0.037186
0.0272716
-0.0855304
-0.079767
-0.0849764
-0.089874
-0.0962793
0.403856
0.393339
0.422937
0.429886
0.471492
0.472526
0.475452
0.474147
0.889981
0.91239
0.919986
0.893696
-3.57954
-6.38492
0.00472581
0.143838
-0.0964179
-0.101283
-0.0519988
-0.0616793
-0.0469582
-0.018039
0.0178603
0.0135929
0.0265303
0.0373697
0.607836
0.607749
0.948759
0.945371
0.933086
0.883286
0.477719
0.479852
0.485415
0.481261
-0.11333
-0.141074
-0.124365
0.68991
0.697193
0.696922
0.209218
0.125197
0.293394
0.320622
0.593627
0.576058
0.590663
0.620259
0.658276
0.937417
0.955726
0.953874
0.962305
1.00629
1.02265
0.988106
0.435347
0.444806
0.440069
0.47688
0.474528
0.475502
0.470792
0.472423
0.470144
-0.0876317
-0.47206
0.456313
0.472197
0.44642
0.455835
0.630208
0.701615
0.644763
0.653492
0.653911
-0.0155845
-0.0731328
0.218541
0.18524
0.346854
0.381326
0.36143
0.861254
0.82161
0.871689
0.844931
0.806102
0.83192
-0.424005
-1.93922
-1.04967
0.500171
0.310536
0.399736
0.0143827
0.0053479
0.0157414
0.937249
1.01692
0.613295
0.776497
0.78687
0.69384
0.723841
0.78174
0.709377
0.742827
0.775401
0.754023
0.511403
0.468863
0.471585
0.769449
0.824612
0.0986705
0.0448841
0.000572091
0.086845
0.142756
0.120354
0.9838
0.881823
0.953951
0.488099
0.488786
-0.129233
-0.154035
0.492896
0.492918
-0.0865363
-0.0717503
0.381309
-0.885649
0.0874211
0.481341
0.471677
0.488555
-0.121095
0.325727
-0.0733695
0.0390098
0.00214331
0.481792
0.420604
0.382386
-0.198401
0.0115351
-0.159647
-0.2489
0.485772
0.484084
0.488021
0.489029
0.489681
-0.2434
-0.196988
-0.17963
-0.212793
-0.197972
-0.190201
0.453417
0.470305
-0.202367
0.488139
0.490283
0.490091
0.483245
0.488898
0.487144
-0.0326723
-0.0498669
-0.000108548
0.195157
0.312968
0.628798
0.724767
0.593875
0.367004
0.128042
0.528323
0.593947
0.496194
0.655042
0.65451
0.672972
0.149876
0.002114
0.158122
0.101543
0.479215
0.477871
0.469928
0.467048
0.483431
0.481525
0.48607
0.483018
0.485981
0.487422
-0.0769596
-0.0950086
-0.118594
-0.176493
0.284412
0.544654
0.220084
0.252074
0.123128
-0.0636549
-0.0674844
-0.0735586
-0.0825754
-0.0260031
-0.0201226
0.0297006
0.0401297
0.0224516
-0.00203463
-0.0272899
-0.0322138
-0.039194
0.475733
0.474567
0.48046
0.488442
0.429672
0.433595
0.400202
0.419888
0.405789
0.347234
0.381608
0.356726
-0.095898
-0.171299
-0.103979
-0.00896183
0.00797246
-0.226214
-0.275766
-0.241102
-0.217999
-0.236055
-0.143132
-0.146987
-0.209436
-0.323672
0.935655
0.876861
0.0733297
0.475002
0.481384
0.478206
0.482974
0.486061
0.486939
0.484689
0.481222
0.470933
0.472727
0.469049
0.469599
-0.142286
-0.279435
-0.103847
-0.170989
0.0940684
0.586247
0.326462
0.267436
0.261047
0.481563
0.876819
0.673396
0.671236
0.694712
-0.39
0.00652924
-0.322853
0.294953
0.117636
0.627288
0.676705
0.698648
0.646531
0.598279
-0.15846
0.500646
-0.0908601
-0.0462585
0.145637
0.0385263
0.672212
0.637819
0.642994
0.660227
0.678889
0.643516
0.622594
0.617211
0.656732
0.662149
0.456401
0.227968
0.183366
0.145142
0.621646
0.497607
0.555745
0.469083
0.474109
0.47694
0.475516
0.458112
0.465329
0.461091
0.466794
0.46995
0.479148
0.479484
0.474926
0.477101
-0.081325
-0.0860309
-0.0622237
-0.17389
-0.161199
-0.219022
-0.103072
0.0310812
-0.00191614
0.187574
0.294301
0.00610716
-0.106971
-0.0767117
-0.0481501
0.131829
0.157286
0.0411237
0.139141
0.117983
0.105588
0.206201
0.214886
-0.0498567
-0.0545635
-0.0635021
-0.0615168
0.00623245
0.0748976
0.0874257
-0.0353393
-0.0269205
-0.0612456
-0.0796519
-0.0507372
-0.05474
-0.0500445
-0.0137079
-0.13578
-0.0496079
-0.0368835
-0.0332995
-0.0151233
-0.0216097
0.469581
0.471398
0.471217
0.478315
0.49452
0.509282
0.471213
0.451479
0.442555
0.445531
0.419732
0.429532
0.426118
0.438328
0.458441
0.466632
0.464992
0.467463
0.450822
0.452369
0.440013
0.443285
0.420251
0.401893
0.390468
-0.159122
-0.14551
-0.162511
-0.117069
-0.112811
-0.0980194
0.00109779
-0.0037583
-0.00666489
-0.00481375
-0.00202278
-0.190682
-0.193187
-0.120114
-0.0428803
-0.227806
-0.260351
-0.330504
0.841726
0.957944
0.767942
0.546282
0.554185
0.791539
0.879704
0.510087
0.689189
0.715667
0.526158
0.785437
0.479802
0.479347
0.47699
0.476482
0.477705
-0.054686
0.0449768
0.0558034
0.10973
0.226307
0.340422
0.259679
0.131587
0.265749
0.271936
0.58094
0.597088
0.543708
0.567574
0.565107
0.393353
0.470669
0.52633
0.479036
0.524802
0.547108
0.507642
0.53803
0.484072
0.441273
0.44001
0.386264
0.407017
0.38514
0.367345
0.469326
0.447387
0.457784
0.448373
0.468017
0.494372
0.489082
0.515694
0.527045
0.453487
0.413746
0.423346
0.451575
0.412245
0.425101
0.440685
0.177139
0.0774758
0.161435
-0.131195
-0.0502773
-0.0657627
-0.112551
-0.0668123
0.219562
-0.479576
-0.452988
-1.08624
0.441306
0.908332
0.626398
0.597509
0.674456
0.652829
0.655493
0.678458
0.685789
0.611371
0.628958
0.633292
0.587845
0.611873
0.633715
0.632267
0.473981
0.349031
0.339936
0.300922
0.177135
0.210163
0.412883
0.334872
0.262184
0.266696
0.42901
0.318682
0.384714
0.422946
0.354681
0.309975
0.512394
0.579316
0.569719
0.545287
0.46075
0.473258
0.498838
0.534617
0.561758
0.593618
0.466597
0.472427
0.473694
0.471241
0.468391
0.47126
0.471304
0.473852
0.47472
0.477637
0.476622
-0.0785316
-0.0680322
-0.0732326
-0.0819113
-0.0525467
-0.0601192
-0.0146341
-0.0270382
-0.0394984
-0.0315976
-0.0596464
-0.0646912
-0.055864
-0.0479911
0.0612158
0.0765194
0.0619389
0.0182286
0.200114
0.332823
0.400488
0.279898
0.173441
0.197567
0.223266
-0.0409023
-0.00352266
-0.0216039
0.018818
0.0024269
-0.060978
-0.0692358
-0.0760504
-0.0438963
-0.0407976
-0.0865115
-0.128057
-0.100258
-0.0967372
-0.0837722
-0.108777
0.453685
0.447297
0.448526
0.442667
0.441506
0.455047
0.459207
0.460945
0.466157
0.467961
0.458708
0.464047
0.467474
-0.0641399
-0.142824
-0.109764
-0.0957692
-0.127859
-0.152957
-0.132799
0.0676885
-0.00638434
-0.000364892
-0.0416916
-0.165335
-0.109682
0.433818
0.433389
0.439598
0.659214
0.511173
0.431512
0.528315
0.632578
0.214658
0.415173
0.24702
0.828695
0.720263
0.864809
0.485187
0.189509
0.344282
0.393884
0.2033
0.276109
0.280336
0.170354
0.202433
0.233474
0.332852
0.213545
0.188362
-0.0544555
0.132832
0.250455
0.231111
0.360894
0.425081
0.205772
0.128467
0.0823588
0.573232
0.593073
0.612163
0.581856
0.606643
0.528975
0.520701
0.538741
0.546665
0.540738
-0.814328
-0.521941
-1.4669
-0.782068
-0.332211
0.47136
0.435671
0.709638
0.599581
0.664696
0.650308
0.611168
0.57711
0.588665
0.621175
0.322579
0.432209
0.406742
0.412883
0.315706
0.249125
0.547972
0.541583
0.57773
0.601975
0.56911
0.602603
0.46441
0.464082
0.463511
0.460148
0.458728
0.460788
0.0249086
-0.00376062
0.0278211
0.00542036
-0.0166096
-0.0258513
-0.0368575
-0.0505256
-0.0668308
-0.0847543
-0.060798
-0.0366842
0.10914
0.0513002
-0.0249967
0.00464024
-0.0525799
-0.117694
-0.136765
-0.0383526
0.0526445
0.0442583
0.347062
0.598108
0.420629
0.58977
0.428244
0.484045
0.4304
0.420945
0.451156
0.329487
0.407063
0.171595
-0.33183
-0.240747
0.725844
0.744562
0.528021
0.341611
0.112056
0.300751
0.501234
0.438254
0.477138
0.545708
0.537932
-0.0420296
0.0249478
0.286394
0.514694
0.182454
0.173162
0.1685
0.343174
0.267172
)
;

boundaryField
{
    wall-4
    {
        type            zeroGradient;
    }
    velocity-inlet-5
    {
        type            zeroGradient;
    }
    velocity-inlet-6
    {
        type            zeroGradient;
    }
    pressure-outlet-7
    {
        type            fixedValue;
        value           uniform 0;
    }
    wall-8
    {
        type            zeroGradient;
    }
    frontAndBackPlanes
    {
        type            empty;
    }
}


// ************************************************************************* //
