/*--------------------------------*- C++ -*----------------------------------*\
| =========                 |                                                 |
| \\      /  F ield         | OpenFOAM: The Open Source CFD Toolbox           |
|  \\    /   O peration     | Version:  2412                                  |
|   \\  /    A nd           | Website:  www.openfoam.com                      |
|    \\/     M anipulation  |                                                 |
\*---------------------------------------------------------------------------*/
FoamFile
{
    version     2.0;
    format      ascii;
    arch        "LSB;label=32;scalar=64";
    class       surfaceScalarField;
    location    "32";
    object      phi;
}
// * * * * * * * * * * * * * * * * * * * * * * * * * * * * * * * * * * * * * //

dimensions      [0 3 -1 0 0 0 0];

oriented        oriented;

internalField   nonuniform List<scalar> 
1300
(
3.75095
5.62643
-3.86789
3.75095
-4.90176
5.62643
-4.44948
4.44948
-1.03076
1.03076
1.87645
1.87451
-2.9819
2.9819
-2.43268
2.43268
-2.56208
2.56208
-5.24646
5.24646
-5.06835
5.06835
4.66817
-4.66817
-5.43441
5.43441
-1.39677
1.39677
-3.84281
3.84281
3.16976
-3.16976
-2.2967
2.2967
-0.272044
0.272045
-0.553537
4.30449
3.19742
3.19742
-2.07072
2.07072
-4.86317
4.86317
6.2182
-6.2182
5.38239
-5.38238
-1.51449
-3.04353
1.04362
-10.1712
-3.85814
-3.85814
-8.4404
8.4404
-2.81397
2.81246
2.94323
-2.94323
-1.78254
1.78254
-4.39194
-0.0575377
-4.39194
4.43917
0.0103034
4.43917
-1.13165
0.100895
-1.13165
3.9429
-3.9429
0.880359
0.150401
0.880359
3.06466
-3.06466
-1.87706
3.7535
1.8739
-1.87186
6.17635
-1.87909
3.7536
-5.9307
5.9307
-3.19245
0.21055
-3.19245
2.77958
0.202323
2.77958
-6.71213
6.71213
-2.41934
-0.0133432
-2.41934
2.3916
0.0410831
2.3916
2.86538
-2.86538
-2.66012
0.0980373
-2.66012
2.45314
0.108941
2.45314
0.353543
5.27289
-5.97997
8.79243
-5.27289
0.0264242
5.20845
0.03801
5.20845
-5.10591
0.0375587
-5.10591
5.01141
0.0569349
5.01141
4.75891
-0.0907388
4.75891
-4.78304
0.114868
-4.78304
-3.10815
-5.43178
-5.97232
0.537911
-5.97232
-1.39988
0.00310732
-1.39988
1.35578
0.0409933
1.35578
-3.57892
3.57892
-4.22019
0.377379
-4.22019
3.12421
0.0455579
3.12421
1.86852
1.88244
5.61947
-5.61947
2.44971
-2.29182
-0.00488013
-2.29182
-2.33976
-3.04262
2.33976
-0.043061
-0.540571
0.268526
-0.540571
3.15924
0.0381782
3.15924
2.29983
0.153311
-2.29983
0.229108
3.20139
-3.20139
1.44405
0.62667
1.44405
-5.56694
5.56694
4.95331
0.058097
-4.95331
0.0901398
6.15663
0.0615706
6.15663
-6.19955
-0.0186553
-6.19955
1.5509
-4.59443
-3.81668
4.67371
0.760702
-4.67371
0.815574
2.91357
0.0296507
2.91357
-2.9212
2.9212
-2.98293
0.0397065
-2.98293
-2.18397
0.401427
-2.18397
1.48162
0.300923
1.48162
-4.26627
-0.125667
-4.26627
-4.36023
0.140041
4.36023
0.0789398
1.07814
-1.07814
-1.23735
0.105693
-1.23735
-4.09656
-0.169711
4.09656
-0.153662
-3.81703
-0.125866
-3.81703
-3.02333
0.0403974
3.02333
0.0413352
3.11253
0.046709
-3.11253
0.0478644
-1.87084
3.75328
-1.88011
3.75401
-5.54642
-0.384283
-5.54642
6.24171
-0.31101
6.24171
3.53285
0.309965
-3.53285
0.340396
2.61596
0.163621
2.61596
-6.69936
-0.0127736
-6.69936
6.67082
0.0413159
6.67082
2.49419
0.121766
-2.49419
0.0748567
2.33519
0.0564081
2.33519
2.87962
-0.0142364
2.87962
-2.86359
-0.00179346
-2.86359
2.80222
-2.80222
2.73527
0.0669506
-2.73527
0.0751461
-11.1329
11.1143
-0.0352108
-11.0977
5.17324
5.17324
4.1881
0.570806
4.1881
-4.9973
0.214258
-4.9973
2.09831
-5.91499
5.01043
-8.11858
5.35867
-15.5298
3.68321
-9.11499
6.47638
-6.47638
6.26668
0.209702
-6.26668
0.294352
-1.4226
0.0227214
-1.4226
-2.9714
-0.607521
-2.9714
4.23558
-0.656656
4.23558
-3.0292
3.0292
-3.07802
0.0488244
3.07802
0.0461828
2.25141
0.0837783
-2.25141
-0.040411
0.713629
0.16673
-0.713629
0.173058
3.40553
-0.204144
3.40553
-3.01968
-0.181705
-3.01968
-1.43564
0.0130354
1.43564
0.00841784
-5.81619
0.249249
-5.81619
-11.1907
0.0929772
-11.1527
-6.10657
-6.10657
2.33383
11.1263
-2.88605
0.0224602
2.88605
0.0275257
2.97631
0.0528857
-2.97631
0.0551149
-2.86346
0.0612435
2.86346
0.0577372
-2.5613
0.377324
-2.5613
-1.07279
1.07279
-1.24686
0.174071
1.24686
0.234761
1.3225
-0.244356
1.3225
1.30668
0.0491024
-1.30668
0.0693297
-3.70669
-0.11034
-3.70669
6.46817
-0.226464
6.46817
-2.9269
-0.0927817
2.9269
-0.0472804
-0.0333208
11.1476
-5.13992
0.0340162
5.13992
-11.2092
11.2432
-3.23499
0.673693
3.23499
0.953116
5.28813
0.278811
-5.28813
0.290835
6.60335
0.0674691
-6.60335
0.126968
-2.48059
-0.490812
-2.48059
-4.96462
-0.581796
4.96462
-0.729046
-11.4757
-0.202463
11.6781
-11.4187
6.01865
0.137979
-6.01865
11.3812
-1.00233
-0.0758115
1.00233
0.0704611
1.63528
-0.31279
1.63528
3.59827
-0.192737
-3.59827
-0.108427
-6.6201
-0.0792532
6.6201
-0.15193
-2.04282
-0.437772
2.04282
-0.407531
-4.26698
4.30516
1.90937
-1.37267
-3.22176
-4.41529
1.85206
1.90121
4.30177
-10.1863
-5.34353
-9.37074
7.26635
-6.97552
-9.27109
9.18035
7.61096
-7.73683
-5.78538
5.83157
6.48189
-6.44055
1.87869
1.87481
7.8874
-7.67685
-15.6985
15.3142
7.42625
-7.4396
15.7865
-15.7993
-17.8007
17.8682
-5.72461
5.82265
-6.72524
6.72345
-6.93146
6.88418
-2.39051
-5.72807
13.1922
-12.6543
7.2475
-7.25238
-8.50171
8.87909
3.38242
0.922737
3.42913
-1.88231
3.761
-1.87129
3.78066
4.04381
-6.43432
1.87118
-5.09294
3.31375
3.93376
-3.27068
-1.14461
-5.9186
5.94825
-5.82203
5.87977
8.9514
-9.00894
-1.88512
3.75994
-1.86889
3.7701
-3.42522
-2.36017
3.37966
0.922109
7.59749
5.59476
-8.35819
-1.01255
-7.85201
7.65927
-8.12562
7.94391
-0.441917
5.82081
-5.37889
4.42126
-1.55786
7.37867
5.70849
5.92275
5.86673
-5.58792
1.10879
-6.48768
-6.39754
-2.54023
2.64592
2.4889
-2.3385
5.98192
1.62904
5.82826
-5.57315
-2.16368
-5.68349
3.82127
2.0103
3.87009
4.07667
2.40522
4.11707
3.03075
-3.0357
0.00494374
-3.05628
6.08703
0.72424
-5.41645
-4.49434
4.92589
2.96152
5.12821
-5.47893
-2.19792
-5.13854
-9.56836
-6.13015
-10.1502
10.125
5.18927
9.81395
-11.9796
11.8276
4.67707
2.74918
4.71816
-4.91048
-2.52912
-4.83562
11.6254
-2.54503
-9.08035
-10.3094
-7.49128
10.2681
5.51837
10.9144
6.95383
11.0413
4.42138
7.204
-9.93975
2.44846
-3.86972
-1.8549
-3.79457
3.69599
2.12666
3.80493
-4.21298
-2.51226
-4.19052
-4.28444
-2.64702
4.29868
2.42477
-4.38935
-3.73627
4.48213
2.40205
5.21168
-10.5552
3.9033
-9.63137
-9.19219
-3.46215
-8.89784
4.59689
2.69156
-7.28845
-1.83743
8.07497
-4.14122
6.93037
-4.29452
-2.95787
-4.33493
-6.79312
-1.70859
-6.65308
-8.89775
8.40694
-9.20888
8.55222
12.6796
-5.713
-6.96664
-3.96804
-2.47251
3.92018
-0.491046
-3.71121
3.71615
0.0497946
3.83045
4.75319
4.26215
-3.88733
-1.9347
-3.83221
3.83296
2.04681
3.8942
6.73859
2.21281
6.74889
-6.45737
-2.55157
-6.58304
9.07462
-8.67319
2.90885
-2.89582
5.28624
2.65767
-5.0821
-2.76991
6.2044
-3.13602
-3.06837
-12.2111
10.5595
1.65153
-4.83239
-0.411134
-0.139089
-5.4993
-3.77179
5.38443
0.538318
11.0979
7.32606
-5.51244
5.76169
6.16567
6.22377
-0.173767
5.83417
-5.16048
5.32556
-2.42242
-2.90314
5.31994
-5.48965
-1.26309
-5.33357
4.07048
0.338607
1.73011
-1.46159
-2.01046
-0.529768
-1.94113
1.48079
1.00811
1.64752
0.959189
1.68673
-2.94878
0.550873
2.3979
-1.98959
-1.78762
-3.69304
-1.02515
4.71819
5.58253
2.07674
-5.47411
-0.209383
2.70329
-2.6623
-0.78878
-2.90426
2.11639
-2.90517
-3.61271
-1.89302
5.50573
-3.37085
-0.461356
3.31797
0.552121
-3.825
-2.0936
3.78529
0.331779
-3.12489
6.18995
-3.06506
-5.05959
2.52885
3.55819
4.53915
-4.79007
2.44616
2.34391
-1.23189
4.2178
0.910404
4.38142
-6.71802
4.5201
5.73621
3.14288
-6.04618
0.907642
-5.81038
8.46474
-7.27361
-1.19113
4.08865
4.37608
7.17228
5.50736
-5.74035
12.9126
-1.14987
-6.12374
6.96025
-3.81737
4.76628
-8.58365
-10.2736
4.14991
-9.24461
10.9987
-1.75413
-3.61635
-8.36322
12.861
-1.22426
-11.6367
8.58969
-4.23062
-4.2998
8.53042
-6.77565
6.82892
-1.9996
-4.82931
-10.114
-5.68526
10.1933
1.63439
-9.9114
12.3599
-2.7074
3.79512
0.923033
3.85153
3.27414
-5.40662
2.13248
3.50151
-5.50111
2.08397
-7.49059
-7.20281
12.9128
-5.71001
-10.665
-9.71105
-0.953909
2.5047
9.85517
-9.45853
7.35786
2.10067
3.31031
0.583897
-3.37726
-0.417312
0.263485
4.54729
-4.81077
4.06841
4.22172
3.37385
1.17344
3.83938
2.10887
-3.86691
-0.323614
-4.15309
1.50607
-1.72832
-3.65347
5.15954
-4.06614
0.412674
-2.73011
-3.50949
6.2396
-4.58501
3.03965
3.1503
5.08645
-4.90953
1.40005
-2.39987
-2.50966
2.6661
-4.39442
1.94373
3.2158
4.34579
0.609519
6.79139
6.12142
-9.48295
-0.148422
11.7162
-10.7036
2.55497
8.48635
-9.91283
0.20178
-8.69605
1.41901
-5.56022
-5.86945
5.08449
-6.79308
-3.49916
6.13557
0.613317
-6.21451
-0.438568
-6.04473
-2.85303
-6.4825
-3.06353
-6.14535
-8.80388
-1.65407
-7.14981
6.75287
-6.6947
-3.45546
7.42375
1.12847
-7.41036
7.33455
-7.49539
7.1826
0.094762
3.62139
4.35691
1.8844
-2.3895
4.2739
-5.07012
7.28293
-8.5783
3.50818
4.05422
-6.60578
-4.52408
5.03875
4.03587
5.33967
8.94618
-10.4457
1.49954
-10.7676
12.1042
-1.33659
-16.5506
5.78305
-7.60446
2.64545
0.2634
2.66818
0.659049
2.42792
-3.08697
-2.23677
-2.22835
-2.34841
-3.42734
5.77575
1.15711
-3.42798
2.27088
-3.4899
4.64701
-0.0724936
-3.35549
5.28739
-2.85947
5.55079
-3.56239
1.9884
3.34493
5.7039
-2.35897
4.35395
-1.69628
1.84329
-4.20227
-1.58404
-2.97019
5.09685
-3.26941
3.68208
-0.286079
3.96816
-4.08718
0.951158
-0.713336
3.50839
3.7375
4.29069
-3.11725
2.97995
-4.67623
-1.22232
-4.06671
-0.850907
-0.29457
-3.77674
4.07131
6.04098
-6.33555
-5.25709
9.56472
-4.30762
7.71879
-5.40226
-2.31653
-4.27252
-4.40067
3.8952
1.93897
9.65776
0.21028
-5.61254
-4.9502
-3.99708
3.21472
2.11084
-1.9267
3.57823
2.06578
-0.33567
0.572216
1.0753
1.85693
-1.28471
0.213227
1.6437
-1.24836
1.98529
0.718001
-2.0344
0.0932679
-1.36616
3.48254
1.03175
-2.03985
0.755143
1.0667
-3.48912
4.84244
-2.48611
-2.35633
5.90914
1.16138
-3.64749
4.17219
-3.83358
2.3335
-3.35865
-1.31399
-5.14757
-3.51853
-2.53575
4.80663
-3.24
5.31673
1.19392
-5.10735
6.30127
-3.57473
1.68171
-3.06966
3.78766
-1.07228
-1.99739
2.79873
2.707
-2.93685
0.0325934
-0.13812
2.33169
-2.46981
-0.573474
-2.56306
-4.571
4.90278
-2.10811
4.55427
2.16578
-1.91423
6.46851
1.81169
-3.72592
-3.2479
-3.70926
-1.38201
3.15714
-0.571846
-4.26377
-5.40116
4.14201
0.239416
-6.86759
7.66848
-0.800886
-3.90607
-0.614026
4.70268
-5.98158
0.48047
-3.89761
3.77087
4.68127
4.92069
-11.4492
-0.187518
-6.25991
1.15436
-7.41428
5.53045
-3.6085
7.7584
-10.4326
6.97715
-9.30413
6.56727
-0.847003
6.25483
-4.12235
2.82552
-8.51078
-6.87639
5.48599
-2.73682
6.40903
-3.0862
9.49523
-5.7936
5.02757
4.46766
-0.690639
-3.64429
-5.31859
4.62795
-0.291023
3.56051
4.97352
-2.86466
4.64991
2.25677
-4.65664
-2.13765
-6.49827
1.84163
-3.34797
-1.91497
3.75659
3.17149
3.75538
1.24694
-3.33807
7.59684
-8.55075
-1.88683
-3.98261
5.28112
-0.65317
3.23697
-7.21958
-2.32326
4.8754
-0.805127
-4.07027
0.837602
-4.33676
1.6551
-5.99186
5.13798
-5.57655
2.20706
-9.81152
-5.2033
-5.13284
-2.24658
-5.24881
-7.62443
5.37785
-1.84138
5.49317
-8.60668
7.80155
-3.4975
8.87535
-5.44068
-1.04181
5.84821
1.33439
10.2097
0.177006
-4.70109
-1.88747
3.95617
-2.0687
1.32725
-3.59973
0.356433
2.47438
3.43476
-6.54486
-0.060925
-4.76201
-3.92476
7.96064
5.63995
11.6809
1.23522
9.15284
-1.1922
10.3881
4.14747
4.38223
-3.06108
4.56062
1.01023
4.51841
-0.838425
2.82683
1.82975
1.83286
0.829442
2.30863
1.42887
3.25978
0.172811
-2.05554
4.63739
-8.63447
-0.975151
-8.06366
1.11669
5.7274
-4.61072
3.10514
-0.994307
1.03645
0.106385
-1.62169
1.51531
-2.79675
-1.95736
-0.313662
-1.60494
2.36008
1.8776
-2.04642
-0.750337
0.318576
-3.83711
3.04007
-3.00748
-0.300482
6.00079
-2.7479
0.278089
-1.06619
-2.28497
-2.81474
2.72147
6.17691
0.291594
3.11185
5.19437
3.10077
0.236114
3.92148
-5.67561
-3.56911
-5.86313
-0.33268
4.37
1.66112
8.19405
6.12878
5.47561
-1.74397
-10.2947
6.59515
-2.03453
5.25856
-1.18829
-4.80357
4.96578
2.31715
-5.5791
0.00254465
-4.80103
-6.83556
-0.5294
8.33095
-9.68034
8.63852
5.7855
1.36431
-4.40939
-0.723448
4.23532
0.146906
10.535
-1.12883
-6.81457
7.9434
-4.59857
3.62342
0.836296
2.74193
2.3516
1.3573
-5.45727
-10.068
-1.90903
-1.58009
-4.26536
0.452826
-2.33043
6.25071
-2.62729
3.93418
5.31611
6.35256
-2.15664
-4.17891
6.46426
-2.53008
3.82248
)
;

boundaryField
{
    wall-4
    {
        type            calculated;
        value           uniform 0;
    }
    velocity-inlet-5
    {
        type            calculated;
        value           uniform -3.75095;
    }
    velocity-inlet-6
    {
        type            calculated;
        value           uniform -5.62643;
    }
    pressure-outlet-7
    {
        type            calculated;
        value           nonuniform List<scalar> 8(3.86789 4.90176 4.55802 9.12754 8.53993 5.36758 7.10874 9.04188);
    }
    wall-8
    {
        type            calculated;
        value           uniform 0;
    }
    frontAndBackPlanes
    {
        type            empty;
    }
}


// ************************************************************************* //
