/*--------------------------------*- C++ -*----------------------------------*\
| =========                 |                                                 |
| \\      /  F ield         | OpenFOAM: The Open Source CFD Toolbox           |
|  \\    /   O peration     | Version:  2412                                  |
|   \\  /    A nd           | Website:  www.openfoam.com                      |
|    \\/     M anipulation  |                                                 |
\*---------------------------------------------------------------------------*/
FoamFile
{
    version     2.0;
    format      ascii;
    arch        "LSB;label=32;scalar=64";
    class       volVectorField;
    location    "32";
    object      U;
}
// * * * * * * * * * * * * * * * * * * * * * * * * * * * * * * * * * * * * * //

dimensions      [0 1 -1 0 0 0 0];

internalField   nonuniform List<vector> 
918
(
(0.985167 -0.000495927 0)
(0.00501104 2.96625 0)
(-0.0575608 1.01422 0)
(0.979699 0.00215269 0)
(-0.0303432 1.28 9.08481e-20)
(-0.00704143 2.94879 -2.41337e-18)
(0.833401 1.17758 4.82438e-19)
(0.34266 0.157201 -1.51127e-20)
(0.999906 -0.000292871 0)
(0.0543356 0.852846 0)
(0.00691197 0.679731 0)
(0.734438 -0.0107246 0)
(0.0110954 2.93037 0)
(0.0023971 2.79466 0)
(-0.0176294 3.15751 8.25116e-19)
(-0.111098 1.71428 -4.5759e-20)
(0.420032 0.0522383 9.86275e-19)
(0.18974 1.19499 3.59276e-19)
(0.96278 0.00503212 0)
(-0.0228951 0.648373 0)
(0.081735 0.19655 -7.13758e-19)
(1.00198 -0.00498378 0)
(1.00022 -0.00979993 0)
(0.975713 -0.0064391 0)
(0.590219 -0.0415017 0)
(0.0161322 2.63814 0)
(-0.0149229 2.91006 8.84152e-19)
(-0.0913205 0.898839 0)
(-0.206738 1.19817 0)
(-0.0728924 0.952993 0)
(-0.188073 2.46184 0)
(-0.015749 1.46648 -7.15316e-20)
(-0.0773368 1.11942 0)
(-0.0206202 2.98759 -8.65777e-23)
(-0.0166929 3.0053 1.87577e-18)
(0.00210318 3.00019 0)
(0.870392 -0.00945504 0)
(0.404306 0.938385 1.48455e-19)
(0.814668 1.19347 -5.64964e-19)
(0.964448 1.03254 5.95427e-19)
(0.684378 1.2868 -1.11561e-19)
(0.683314 1.27119 6.43956e-19)
(0.383203 0.244013 1.47439e-20)
(0.36168 0.1274 0)
(1.14393 0.556423 0)
(0.34593 0.244896 6.74695e-20)
(0.303656 0.163857 -7.00178e-20)
(0.919661 -0.00746637 0)
(1.00027 0.000132824 0)
(0.99991 0.000327627 0)
(1.00364 -0.00778012 0)
(1.00096 -0.000927854 0)
(1.00017 2.72658e-05 0)
(0.0776293 1.78903 -7.06752e-19)
(0.0297957 1.00853 0)
(0.0839628 0.912596 0)
(0.028513 0.953456 0)
(0.0275978 0.782328 0)
(0.028817 2.00467 0)
(-0.0204503 0.816425 0)
(0.010676 0.672591 0)
(-0.00857206 0.809299 0)
(-0.00565736 0.666541 0)
(0.835947 -0.0148281 0)
(0.851652 0.0269494 0)
(0.768396 -0.00112815 0)
(0.825947 0.0355787 0)
(0.701859 -0.01509 0)
(0.0146927 3.0004 8.93799e-19)
(0.0115097 3.00796 0)
(0.00612518 3.0028 0)
(0.0135346 2.99734 1.01285e-23)
(0.00798542 2.95848 -1.32841e-18)
(0.014479 2.98206 0)
(0.0108095 2.90364 0)
(0.0248491 2.93067 2.01499e-24)
(0.0044504 2.82478 0)
(0.0306838 2.91607 0)
(-0.00568345 2.74491 0)
(0.308529 3.55444 0)
(-0.131932 3.63601 0)
(0.139705 3.24794 7.67866e-19)
(-0.0124102 2.98301 0)
(-0.321216 2.28274 0)
(-0.117606 1.87902 4.71844e-20)
(-0.0842702 1.86295 -3.47228e-20)
(0.503372 0.149916 -3.41027e-19)
(0.418703 0.0302351 -3.29457e-19)
(0.488089 0.173478 -1.02754e-18)
(0.404361 0.074163 -6.79459e-19)
(0.21652 0.929198 0)
(0.271545 1.33302 -4.15613e-19)
(0.378842 1.27811 6.92501e-19)
(0.987485 0.00853545 0)
(0.941939 0.005847 0)
(1.0003 0.000574141 0)
(1.00287 0.00930015 0)
(1.00303 0.00846172 -2.5065e-18)
(0.991918 0.00969816 1.89284e-18)
(-0.00169686 0.774031 0)
(-0.00807074 0.626384 0)
(-0.0810645 0.902273 0)
(-0.0145251 0.777101 0)
(0.00817869 0.654956 0)
(0.128166 0.204237 2.20759e-19)
(0.183846 0.182754 0)
(0.993531 -0.00839539 0)
(0.954388 -0.00653039 0)
(0.779122 0.043088 0)
(0.720764 0.0522385 0)
(0.659522 -0.0315039 0)
(0.948812 -0.00808573 0)
(0.643684 0.0644025 0)
(0.4756 -0.0205264 1.41435e-18)
(-0.0366935 2.86372 6.36341e-19)
(0.0422488 2.90904 0)
(0.0546094 2.88487 0)
(-0.00457918 2.69884 0)
(-0.013285 2.98521 8.35413e-19)
(-0.0180201 2.89523 0)
(-0.0153685 2.98812 -2.59406e-18)
(-0.0133669 2.9252 8.88477e-19)
(-0.285375 1.22406 0)
(-0.30624 1.43272 0)
(-0.133349 1.71023 -1.12186e-21)
(-0.140612 1.53306 0)
(-0.115786 1.44778 0)
(0.93765 -0.00761599 0)
(0.855851 -0.00957328 0)
(0.863661 0.00678627 0)
(0.94895 -0.00805812 0)
(0.883472 -0.00812411 0)
(0.516499 1.1322 -1.89285e-19)
(0.566065 1.1837 0)
(0.368125 0.88271 2.93882e-20)
(0.310299 0.742662 0)
(0.923946 1.07067 -1.64536e-19)
(1.03691 0.873641 3.29591e-19)
(0.373539 1.37967 0)
(0.53634 1.35017 0)
(0.546159 1.30391 0)
(0.109099 0.181962 -2.74561e-19)
(0.417946 0.226136 0)
(0.385581 0.115519 1.91889e-19)
(1.00678 0.927786 0)
(1.07209 0.775292 0)
(1.0977 0.717156 -2.57016e-19)
(1.12384 0.616548 0)
(1.16903 0.40022 5.54551e-20)
(0.957364 -0.00890557 0)
(0.962278 -0.0101157 0)
(0.90134 -0.00798917 0)
(0.98415 -0.00918599 0)
(0.974593 -0.00937749 0)
(0.937008 -0.00641226 0)
(1.00019 0.00233281 0)
(1.00091 0.00140456 0)
(0.999911 0.000847156 0)
(0.035366 2.05326 3.9454e-19)
(0.119886 1.72941 0)
(0.0153879 2.16744 2.75415e-19)
(0.0539171 1.84962 -4.88599e-19)
(0.110158 1.19623 -2.95022e-19)
(0.0458519 1.08068 0)
(0.141862 1.06083 0)
(0.0174713 0.909955 0)
(0.0232822 0.723812 0)
(-0.0113989 2.18833 -6.27713e-22)
(0.0383381 1.99825 0)
(-0.0116566 2.162 -2.80748e-20)
(0.0253189 2.00069 -9.91554e-21)
(0.0204974 0.865297 0)
(0.00061056 0.82872 0)
(0.0164504 0.691289 0)
(-0.0103933 0.793119 0)
(-0.0273338 0.648939 0)
(0.933792 0.00847217 0)
(0.843064 -0.0151018 0)
(0.924444 -0.000425934 0)
(0.838612 -0.0119256 0)
(0.813193 0.00291427 0)
(0.903096 0.0189052 0)
(0.880743 0.0230434 0)
(0.790001 0.00166827 0)
(0.00582739 3.06495 -8.29816e-21)
(0.0166099 3.05777 0)
(0.0146982 2.96908 0)
(0.00865124 2.87629 0)
(0.925711 3.97108 0)
(1.24053 3.30318 9.45878e-19)
(0.0703777 3.07511 0)
(-0.0280249 2.90583 0)
(-0.329044 1.54246 0)
(-0.360102 2.19447 0)
(-0.36127 1.89634 0)
(-0.238295 2.48416 -6.39146e-20)
(-0.279532 2.43543 0)
(-0.253326 2.40716 0)
(0.00187643 1.9758 -3.6062e-21)
(-0.0371404 2.05308 1.38597e-20)
(-0.0727528 1.99468 3.48582e-20)
(-0.0231955 1.93197 0)
(0.530673 0.122706 5.09916e-19)
(0.434083 0.00694816 -5.00493e-19)
(0.261188 1.56183 0)
(0.26503 0.705315 -2.95851e-19)
(0.178091 1.64747 -9.97646e-19)
(0.22597 1.17621 1.00023e-18)
(0.902415 0.00662823 0)
(0.967571 0.0109485 0)
(0.974647 0.0107362 0)
(0.923537 0.00653061 0)
(0.0016338 0.780202 0)
(-0.00742027 0.77322 0)
(-0.00789589 0.621195 0)
(0.293281 0.239067 6.19087e-19)
(0.239687 0.218115 -7.33104e-19)
(0.253371 0.175922 0)
(1.07448 0.0843069 2.38422e-20)
(1.05579 0.0389141 0)
(0.99273 0.038129 0)
(0.889977 -0.00713873 0)
(0.554218 0.0957131 0)
(0.584284 0.0727372 -2.26602e-18)
(0.450576 -0.0031346 8.5312e-19)
(0.00920689 2.98172 6.92694e-19)
(-0.0321078 2.86665 4.86543e-20)
(0.00363422 3.05025 -1.75947e-20)
(0.020133 3.04338 6.26257e-19)
(-0.0149989 2.99657 2.92042e-20)
(-0.0129476 2.94944 -1.17587e-22)
(-0.0172627 3.01197 -5.41449e-19)
(0.0148279 3.02393 3.9189e-19)
(0.00734841 3.0368 -6.20103e-19)
(0.932022 -0.00255302 0)
(0.938076 -0.00389494 0)
(0.843349 -0.00858679 0)
(0.956869 0.0115913 0)
(0.943303 0.0127932 0)
(0.881986 0.00628558 0)
(0.918849 0.0155757 0)
(0.926947 0.0142871 0)
(0.83925 0.00469304 0)
(0.720102 1.41108 8.66552e-20)
(0.753763 1.52035 0)
(0.195213 0.340614 6.57015e-20)
(0.212475 0.650509 5.29034e-19)
(0.257665 0.717791 -3.05157e-19)
(0.268978 0.54572 6.03762e-19)
(0.322387 0.767698 1.44897e-18)
(0.126747 0.214448 3.42888e-19)
(0.463509 0.19731 -7.10385e-19)
(0.439899 0.213325 1.863e-19)
(0.396359 0.0993735 3.5947e-19)
(1.15846 0.458291 6.87028e-20)
(1.16942 0.252849 6.54268e-20)
(0.00464778 2.20672 2.23881e-19)
(0.0518963 1.91842 0)
(0.958183 0.0267088 0)
(0.935993 0.0117611 0)
(0.85702 -0.0184094 0)
(0.0112053 3.07432 0)
(0.0198065 2.9442 1.14132e-18)
(0.0164523 2.95634 0)
(0.00631009 2.85059 -1.13195e-18)
(0.00634332 3.09185 2.76477e-19)
(0.00713981 3.08248 0)
(0.786879 1.82322 -1.73301e-19)
(1.24828 2.50184 4.50097e-19)
(0.769031 1.96312 -1.28154e-18)
(0.0201582 2.98192 -5.8902e-19)
(0.0359662 3.00226 0)
(-0.0336902 2.87867 0)
(-0.00975445 2.13821 -4.97955e-21)
(-0.0174616 2.10325 9.36116e-22)
(0.0198194 1.993 -3.94749e-21)
(0.275047 1.36859 9.64567e-19)
(0.218407 0.48832 -6.61988e-19)
(0.0626695 1.97708 7.27163e-19)
(0.136696 1.86631 -8.65673e-19)
(0.178664 1.46976 8.85897e-20)
(0.00533483 3.11793 -1.55963e-18)
(0.0146972 3.11838 1.68077e-18)
(-0.00909921 2.98061 7.6695e-19)
(-0.00343558 2.97734 -7.22242e-19)
(-0.0215317 2.88142 -7.8112e-19)
(0.00860014 3.09866 -2.05198e-18)
(0.0018669 3.10667 2.02864e-18)
(0.267137 0.674626 0)
(0.226104 0.663084 -1.08934e-18)
(0.100657 0.221829 4.82892e-19)
(0.340924 0.891104 1.0236e-18)
(0.181258 0.256167 -1.57732e-18)
(1.15954 0.172754 5.37758e-20)
(1.17029 0.30733 0)
(1.1469 0.120581 -2.53996e-22)
(-0.00836514 2.20528 -1.20914e-21)
(-0.000717194 2.21189 0)
(0.0391365 1.96201 0)
(0.337255 1.27265 -3.4855e-19)
(0.361418 1.09951 -7.49379e-19)
(0.194061 0.349992 1.32787e-18)
(1.00587 -0.0108751 0)
(1.00766 -0.00766414 4.62264e-19)
(-0.222037 1.24135 0)
(-0.1543 1.04438 0)
(1.00222 0.00347135 1.7773e-21)
(1.00365 0.00941903 9.43945e-19)
(-0.240465 2.49901 8.41691e-20)
(-0.244361 2.49211 0)
(0.0364375 3.17937 3.76919e-19)
(0.395685 3.49284 0)
(1.13379 0.652366 -5.1672e-20)
(1.01298 0.0130227 -2.15063e-21)
(1.02118 -0.0105096 0)
(1.00169 0.000116088 6.28983e-23)
(0.0967455 1.35279 0)
(0.146645 2.58345 0)
(0.0249465 1.30136 0)
(-0.000410034 2.62218 1.7991e-20)
(-0.0295799 2.57335 1.02464e-20)
(1.00414 0.027363 2.47592e-21)
(1.06166 0.00285059 0)
(1.09188 0.0175549 0)
(-0.297098 2.15531 0)
(-0.10811 2.54642 0)
(0.00224802 1.11792 0)
(0.281868 1.46364 -2.01249e-19)
(1.01124 -0.00968025 0)
(1.00939 -0.0149503 0)
(1.00235 0.000699794 5.8992e-19)
(1.00547 -0.0048526 -6.94268e-19)
(1.00117 -0.00102585 0)
(-0.235951 1.83669 0)
(-0.212098 1.294 0)
(-0.275804 1.60289 0)
(-0.00814222 1.07734 0)
(-0.0237164 1.00084 0)
(-0.00671899 0.940065 0)
(1.03415 -0.00672439 0)
(1.0209 0.0157184 -9.74059e-22)
(0.794874 1.25858 2.86958e-19)
(1.00232 0.000274383 -5.89888e-19)
(1.00406 0.00521552 6.89052e-19)
(1.00117 0.00205355 0)
(1.01283 0.0102726 5.84641e-19)
(1.00807 0.00828139 -7.09425e-19)
(1.00861 0.0146918 0)
(-0.171087 2.58003 0)
(-0.236415 2.54008 -4.55456e-20)
(-0.20911 2.51417 2.20929e-20)
(1.20963 0.260139 5.20775e-19)
(1.14756 0.0781021 0)
(0.0456681 3.0779 -8.80428e-19)
(0.0659035 2.85366 -6.48457e-20)
(0.142925 3.19416 1.34653e-18)
(0.137852 3.22287 -1.76881e-19)
(0.136415 3.23566 0)
(0.0197923 3.13762 2.23978e-19)
(0.077018 3.161 8.67728e-19)
(0.0699148 3.18696 -4.23002e-19)
(0.0228574 3.12952 0)
(0.659015 0.302752 0)
(0.576029 0.360504 0)
(1.10497 0.683786 1.12587e-19)
(1.10171 0.815077 6.58862e-20)
(1.1631 0.570453 0)
(1.19269 0.51235 0)
(1.01621 0.0132255 -1.08942e-18)
(1.01499 0.0142172 -1.53951e-21)
(1.02508 -0.0100205 0)
(1.02314 -0.0119256 0)
(1.00643 0.00262403 0)
(1.01038 0.00366167 0)
(1.00454 0.00188377 0)
(1.00988 0.00603152 0)
(1.0079 0.00602304 0)
(1.00446 0.0046111 0)
(0.0880432 1.34846 0)
(0.0800951 1.31925 0)
(0.114363 1.3828 0)
(0.127161 1.40093 0)
(0.145113 2.60692 0)
(0.18594 2.66945 -4.0027e-19)
(0.0983333 2.66382 0)
(0.087899 2.6648 1.73926e-19)
(0.0407772 2.68024 -1.26752e-19)
(0.0277935 1.29257 0)
(0.033137 1.22621 0)
(0.0180075 1.32243 0)
(0.0396082 1.26997 0)
(-0.0118666 1.98755 2.23429e-20)
(-0.0334115 2.60263 -2.45303e-20)
(-0.0098788 2.66521 -9.36065e-21)
(-0.023161 2.67492 0)
(-0.0404902 2.6074 -9.2499e-21)
(-0.0360677 2.60202 4.65465e-22)
(-0.00602321 1.98829 -1.67335e-20)
(-0.0290866 2.41236 3.28901e-20)
(-0.0232847 2.43069 1.06195e-20)
(1.01297 0.0346726 1.10325e-18)
(1.00844 0.0170457 3.10588e-21)
(1.00528 0.0414739 -1.11053e-18)
(0.984059 0.0227664 1.41205e-18)
(1.0625 0.00655442 0)
(1.04776 -0.00901053 0)
(1.08982 0.0287035 0)
(1.07146 0.00980447 0)
(1.06876 -0.00114409 0)
(1.13052 0.0709528 0)
(1.10381 0.0357644 0)
(1.10558 0.024014 0)
(-0.235082 2.52411 1.58396e-20)
(-0.262651 2.39341 0)
(-0.27906 2.44819 0)
(-0.105469 2.5801 -1.86396e-20)
(-0.0424987 2.57131 -4.21232e-22)
(-0.0240711 1.92332 -2.96344e-19)
(-0.11305 1.80646 2.99652e-19)
(0.0486953 1.3496 0)
(-0.0280444 1.36355 0)
(-0.108481 1.35622 0)
(0.0398828 1.12405 0)
(-0.0181527 0.99755 0)
(0.374553 1.47766 3.49568e-19)
(0.411219 1.48572 1.70186e-19)
(0.594937 2.45275 -2.23876e-19)
(0.404839 2.5463 6.53795e-19)
(0.355148 2.0777 5.13031e-20)
(1.02084 -0.00827366 0)
(1.0154 -0.00982994 0)
(1.01484 -0.0156394 0)
(1.00744 -0.00126462 0)
(1.00494 -0.000985554 0)
(1.00775 -0.00480004 0)
(1.00922 -0.00383763 0)
(1.0141 -0.00454918 0)
(1.02159 0.0158777 1.06376e-18)
(1.01825 0.0158055 -1.36566e-18)
(1.02209 0.0177376 -1.07055e-18)
(1.01974 0.0164244 1.34243e-18)
(0.762904 1.30717 0)
(0.696599 1.36208 2.92617e-19)
(0.871332 1.20487 1.22148e-19)
(0.914634 1.15937 -1.62565e-19)
(1.15818 2.60881 1.51494e-19)
(0.816599 0.0950244 5.5809e-19)
(1.14742 0.096516 0)
(1.18967 0.185091 -4.16949e-19)
(1.1746 0.150707 -1.75133e-20)
(1.00622 0.134453 0)
(0.139136 2.96257 4.81225e-19)
(0.115839 2.86856 -1.11727e-18)
(0.0272901 2.37002 7.61109e-19)
(0.0931329 0.00839828 -3.38515e-19)
(0.340479 3.42185 -2.46778e-19)
(0.195208 3.31444 0)
(0.237663 3.35672 3.21388e-19)
(0.247023 3.03575 -1.64538e-18)
(0.341568 3.19452 0)
(0.00610303 3.12091 4.43309e-20)
(0.0171057 3.12953 -5.24985e-19)
(0.0148693 3.12558 7.72683e-19)
(0.0356071 3.13992 0)
(0.033996 3.1508 0)
(1.21623 2.60863 0)
(0.531287 0.842843 -4.85061e-19)
(1.03312 0.98824 -2.07771e-20)
(0.97191 1.05879 0)
(0.816893 0.95889 -8.98241e-20)
(1.05642 0.876206 2.95614e-20)
(0.36826 0.413682 -8.79027e-19)
(0.701186 0.3282 -2.28404e-20)
(0.683248 0.252331 4.03715e-19)
(0.59163 0.393987 2.99815e-20)
(0.510663 0.369408 -1.20914e-18)
(0.672954 0.339786 0)
(0.700835 0.42648 6.82034e-19)
(0.708112 0.425697 0)
(0.629921 0.374968 0)
(0.607531 0.301516 0)
(0.785623 0.617166 3.85775e-19)
(1.20615 0.280173 -5.6797e-20)
(1.202 0.416321 0)
(1.21378 0.364336 0)
(0.761074 0.19468 6.01756e-19)
(0.831405 0.537668 -3.69358e-19)
(0.737156 0.514453 -6.46596e-19)
(0.932087 0.420254 -7.0584e-19)
(1.0199 0.0145797 7.32795e-19)
(1.01797 0.0140858 -7.37819e-19)
(1.01596 0.0156398 0)
(1.03558 -0.00627811 0)
(1.02941 -0.00886371 -6.88742e-19)
(1.02728 -0.012361 6.81901e-19)
(1.02512 0.0096467 0)
(1.02378 0.0130367 0)
(1.01138 0.00401978 0)
(1.01432 0.00886883 0)
(1.01507 0.00382171 0)
(1.01418 0.00270636 0)
(0.0648463 1.33297 0)
(0.0668294 1.2942 0)
(0.14679 1.3432 4.77337e-20)
(0.260943 1.46162 1.07355e-19)
(0.151679 1.43201 2.23454e-19)
(0.182327 1.44095 -1.15758e-19)
(0.16281 1.37121 0)
(0.1293 1.58951 -2.13575e-20)
(0.108542 1.5584 0)
(0.352867 2.03246 -7.45622e-20)
(0.350731 2.36512 5.62435e-19)
(0.184641 1.43926 1.86284e-20)
(0.26119 1.36731 4.84789e-20)
(0.194147 1.35257 3.92137e-20)
(0.269731 1.30745 -3.18702e-20)
(0.238546 1.57345 6.89442e-20)
(0.261217 1.61529 5.87438e-20)
(0.0288974 2.27764 -1.39232e-20)
(0.0378324 2.6732 0)
(0.0625252 2.41346 9.49134e-20)
(0.0569686 2.43436 0)
(0.0673831 2.67838 -1.9281e-19)
(0.0493586 2.70222 0)
(0.024746 1.42077 5.65402e-20)
(0.0223102 1.4637 0)
(0.0231232 1.38608 0)
(0.0233208 1.39153 -6.38026e-20)
(-0.00259914 2.65128 -2.12887e-20)
(0.0258096 2.69783 1.39262e-19)
(0.0113348 2.71989 9.64096e-22)
(0.0060189 1.85685 -2.46991e-20)
(-0.0135814 1.65773 1.01189e-20)
(0.0653323 1.24091 0)
(0.0431363 1.12143 0)
(0.0352327 1.57368 -6.69908e-20)
(0.0216268 1.44717 -7.14601e-20)
(0.0294225 1.51202 9.01885e-20)
(0.0328724 1.596 0)
(-0.104489 2.41665 2.51749e-19)
(-0.123409 2.5735 -1.17659e-19)
(-0.0504832 2.50854 1.28535e-20)
(-0.0159041 1.86476 2.97065e-20)
(-0.0616287 2.4964 8.85752e-21)
(-0.0216572 2.44347 -5.15566e-21)
(1.0204 0.0203141 -7.27512e-19)
(1.01697 0.025465 7.29995e-19)
(1.01512 0.0163119 0)
(1.01674 0.0642938 9.99499e-19)
(0.995478 0.0554956 -1.15346e-18)
(0.95744 0.0430463 1.29277e-18)
(1.01747 0.0990914 -1.36804e-19)
(1.0418 -0.00637401 0)
(1.04975 -0.00230587 6.54706e-19)
(1.03802 -0.0104983 -6.57081e-19)
(1.06938 0.0375108 -3.88564e-20)
(1.06329 0.0203479 3.35887e-19)
(1.06148 0.048452 0)
(1.05439 0.0423351 -1.20633e-19)
(1.0324 0.0384579 0)
(1.02636 0.0349097 0)
(1.02767 0.0125197 0)
(1.02439 0.0153313 0)
(1.03859 0.0293279 2.48864e-19)
(1.03864 0.0250573 -5.50394e-19)
(1.05055 0.031122 -2.6399e-19)
(1.0471 0.0311446 -2.90195e-19)
(1.06878 0.054397 5.66157e-19)
(1.09081 0.0423788 0)
(1.0976 0.0866575 0)
(-0.0993608 2.43099 1.84103e-19)
(-0.199693 2.34743 2.10896e-20)
(-0.154204 2.34443 0)
(-0.179374 2.52518 -1.83812e-19)
(-0.234373 2.52528 -3.4699e-20)
(-0.207258 2.52957 2.1514e-20)
(-0.0423839 2.60948 4.45963e-22)
(-0.0765325 2.55117 3.65407e-22)
(-0.0491453 2.52733 -1.19076e-21)
(-0.0546021 2.59422 2.06054e-21)
(-0.0476505 2.59926 -2.0739e-21)
(0.103624 1.59466 8.43399e-21)
(0.0612355 1.89437 -2.15215e-19)
(0.36454 1.41694 -1.5602e-19)
(0.362408 1.35742 -3.92062e-20)
(0.643947 1.40749 -2.82952e-19)
(0.510608 1.47217 -1.64593e-19)
(0.562524 1.4456 0)
(0.590692 2.42774 1.97027e-19)
(0.657773 2.41871 3.18798e-19)
(0.41082 2.52244 8.14745e-20)
(0.405356 2.55541 -5.4786e-19)
(0.515245 2.50463 5.4835e-19)
(0.54954 2.46624 0)
(0.488254 2.51918 -5.27997e-19)
(0.247735 2.59603 1.0786e-18)
(0.353414 2.5712 -8.25881e-20)
(0.284552 2.65669 -1.4925e-18)
(0.938545 2.38268 6.4714e-19)
(0.83229 2.38753 0)
(1.011 0.00034039 2.3896e-20)
(1.01535 -0.00557259 -1.94665e-20)
(1.01755 -0.00369241 -3.54254e-19)
(1.01491 -0.00114552 3.56474e-19)
(1.01234 0.0008688 0)
(0.632122 1.27514 0)
(0.653252 1.17054 0)
(0.753573 1.07818 0)
(0.64426 1.13781 0)
(1.1865 2.62378 5.92379e-20)
(1.0767 2.36828 0)
(0.842029 2.18901 2.92881e-21)
(0.828124 2.45736 0)
(0.923213 2.54538 -3.47382e-19)
(0.95971 2.49992 0)
(0.82748 0.146972 0)
(0.798699 0.130062 1.53827e-19)
(0.924796 0.124607 8.77589e-19)
(0.846963 0.12042 -3.32772e-19)
(0.826667 0.0626105 -1.01265e-18)
(1.06702 0.222283 -8.27486e-19)
(0.986776 0.277775 -1.5593e-20)
(0.913298 0.273336 8.18467e-19)
(1.00028 0.205504 6.75922e-19)
(0.949061 0.165496 -1.16266e-18)
(0.918081 0.170185 1.45934e-19)
(0.94697 0.233285 -3.10672e-19)
(0.925955 0.194235 0)
(0.995648 0.16676 -5.72177e-19)
(1.04314 0.171487 0)
(1.03981 0.198045 0)
(1.09615 0.107344 2.63976e-19)
(1.07014 0.161891 -1.35931e-20)
(1.06099 0.225913 -4.2169e-19)
(1.09224 0.193679 0)
(1.02291 0.0427815 5.6379e-19)
(1.04234 0.0526437 6.99743e-19)
(1.03301 0.0402951 -5.59504e-19)
(1.0432 0.0576045 -4.68921e-19)
(1.01764 0.0656947 -7.07419e-19)
(0.991831 0.139837 0)
(1.00209 0.0943625 0)
(0.973237 0.0602916 -4.60675e-19)
(0.925446 0.0779227 1.8236e-19)
(1.04095 0.0936895 6.50122e-19)
(1.06926 0.108764 -7.63384e-19)
(1.07414 0.140905 6.8315e-19)
(1.03442 0.130972 0)
(1.07449 0.0954721 0)
(1.05968 0.0784309 -3.1067e-19)
(1.04818 0.0867246 -5.31838e-19)
(0.584338 1.08399 1.02484e-19)
(0.614211 1.41251 -4.18262e-21)
(1.15739 2.74092 -1.74138e-19)
(1.22375 3.08223 -1.0691e-20)
(1.24961 2.72295 -1.74777e-20)
(1.27967 2.70684 -8.17983e-20)
(1.20796 2.34702 -1.00185e-20)
(1.211 2.98601 -4.53108e-20)
(1.23051 2.95102 1.60256e-19)
(1.2148 3.23604 -1.65186e-19)
(1.376 2.96772 2.2847e-19)
(1.36667 2.88606 0)
(0.538536 0.849785 -4.37883e-20)
(0.139294 1.26155 5.4144e-19)
(0.527627 0.469881 5.70158e-19)
(0.361878 0.221219 6.26986e-19)
(0.530715 0.399128 6.81441e-19)
(0.539122 0.487758 -1.11816e-18)
(0.542175 0.494437 9.14408e-19)
(0.496341 0.419345 -3.43858e-19)
(0.42499 0.357363 7.83558e-19)
(0.764475 0.251529 1.04606e-18)
(0.724537 0.289593 0)
(0.719915 0.222748 9.91603e-21)
(0.717469 0.513647 3.58202e-19)
(0.689427 0.484827 -1.30689e-18)
(0.6098 0.487111 1.65475e-20)
(0.623938 0.468785 0)
(0.665914 0.738845 3.63398e-19)
(0.813508 0.769848 3.53959e-19)
(0.742412 0.85363 -4.15342e-19)
(0.855396 0.801501 -1.42018e-19)
(0.889012 0.843386 -3.27884e-20)
(0.897361 0.844831 3.35612e-20)
(0.82522 0.643149 -6.41893e-19)
(0.901978 0.697263 1.3195e-19)
(0.959908 0.711361 0)
(0.949402 0.687516 -1.82089e-19)
(1.01215 0.318757 2.00628e-19)
(1.12029 0.29018 2.64958e-19)
(1.05162 0.26054 3.38115e-19)
(0.993788 0.352343 -4.05883e-19)
(1.03386 0.419047 0)
(1.08726 0.405961 0)
(0.901132 0.349037 4.64322e-21)
(0.838926 0.282648 0)
(0.862791 0.275495 3.88067e-19)
(0.897768 0.279753 -6.20599e-21)
(0.923532 0.423492 1.96483e-18)
(0.87967 0.484952 5.06275e-19)
(0.88537 0.449597 -5.45094e-19)
(0.814881 0.436601 -5.83731e-19)
(0.796993 0.431133 3.54028e-19)
(0.769014 0.418 -3.48009e-19)
(1.02698 -0.000757572 5.89283e-19)
(1.02001 -0.000377067 0)
(1.01855 0.000547519 3.84463e-19)
(1.02143 -0.00200391 -3.40275e-21)
(1.02238 0.0039326 4.2292e-19)
(1.02051 0.0108215 -8.8577e-19)
(1.02153 0.0102409 0)
(1.02079 0.0105623 -1.84707e-19)
(1.01605 0.00740825 4.63354e-19)
(1.01678 0.0101996 -2.31159e-19)
(1.01748 0.00955403 1.70283e-19)
(0.03499 1.31861 0)
(0.0365612 1.35589 0)
(0.0517405 1.3147 0)
(0.0418609 1.27602 0)
(0.0739651 1.36836 -1.21128e-19)
(0.0791677 1.34041 4.36313e-20)
(0.107414 1.49227 9.24882e-21)
(0.0857349 1.33705 -2.44822e-20)
(0.0321241 1.45077 5.26906e-20)
(0.0365415 1.44113 -4.0075e-20)
(0.0671847 1.35094 -7.20582e-21)
(0.060421 1.35305 -1.05462e-19)
(0.0521471 1.33075 1.16391e-20)
(0.0390109 1.35492 -7.82439e-21)
(0.10435 2.38719 -1.04147e-19)
(0.0925273 2.43002 0)
(0.166336 2.06424 8.74635e-20)
(0.110027 1.71039 2.02473e-20)
(0.229621 2.0579 -7.06175e-20)
(0.209653 2.45458 0)
(0.268775 2.40653 -5.16134e-19)
(0.305299 2.40504 3.66866e-19)
(0.229722 2.01664 -2.62681e-19)
(0.151165 2.18385 1.38318e-19)
(0.146251 2.30495 0)
(0.0122131 1.88621 5.13541e-20)
(-0.0153897 2.40355 -4.40609e-21)
(-0.000602135 2.16331 0)
(0.00487786 2.46587 -1.39184e-20)
(0.0167098 2.31529 -1.39636e-20)
(0.0300615 1.41282 -1.16309e-20)
(0.0689093 1.38096 2.10984e-19)
(0.0783737 1.41861 -7.18878e-20)
(0.0223266 1.41415 -5.76628e-20)
(0.0271285 1.42651 0)
(0.076924 1.39802 0)
(0.0458879 1.15107 -1.32273e-19)
(0.109598 1.37361 3.9451e-20)
(0.111876 1.3733 0)
(0.0566229 1.18862 -8.00241e-20)
(0.0458388 0.986852 1.78874e-19)
(1.0403 0.0107236 0)
(1.04563 0.0070809 -6.15225e-20)
(1.03833 0.020304 -4.43138e-19)
(1.04753 0.0192678 0)
(1.05188 0.0190386 0)
(1.03616 0.0104738 -6.41832e-21)
(1.03133 0.0103339 7.11667e-19)
(1.0318 0.0152402 8.64978e-19)
(1.02597 0.0192033 0)
(1.02343 0.0197975 0)
(1.03493 0.0234314 4.42531e-19)
(1.02628 0.0248106 0)
(1.02516 0.0245771 0)
(-0.00149528 2.09382 0)
(0.0345367 1.88656 2.7344e-20)
(0.0389685 1.95802 -6.59255e-20)
(0.0880872 1.38053 0)
(0.120907 1.67278 -7.30371e-20)
(0.124056 1.51571 7.3689e-20)
(0.0890786 1.40345 0)
(0.395998 1.68768 0)
(0.363184 1.28468 5.19908e-20)
(0.306333 1.33815 0)
(0.418844 1.28454 -9.64156e-20)
(0.462843 1.44523 0)
(0.444204 1.38979 8.08265e-20)
(1.03356 2.69174 -1.37105e-20)
(0.961154 2.41322 -8.61683e-19)
(0.909102 2.18651 9.42793e-19)
(0.845214 2.37952 2.22058e-19)
(0.846021 2.50543 0)
(0.916401 2.49942 0)
(0.921855 2.37655 0)
(0.899361 2.36264 -8.61301e-19)
(0.693036 2.47705 -3.28018e-19)
(0.802215 2.46828 -8.26797e-20)
(0.813955 2.43971 6.31813e-20)
(0.692477 2.39466 0)
(0.79633 2.39136 0)
(0.755225 2.40335 -3.43082e-19)
(0.76991 2.49672 0)
(0.613765 1.09346 0)
(0.484568 0.930598 -4.21548e-19)
(0.553694 0.965053 -2.70284e-20)
(0.525217 1.06062 0)
(0.523955 1.00947 6.33396e-19)
(0.766435 0.879281 -1.10806e-19)
(0.778372 1.01044 0)
(0.751096 0.966783 1.54935e-19)
(0.640227 1.03333 0)
(0.644884 0.943959 0)
(1.16527 2.76203 -1.86585e-19)
(1.14302 2.82572 -6.31382e-20)
(0.933872 2.34679 4.08525e-20)
(0.901323 2.3261 -5.73159e-20)
(1.13023 2.73578 0)
(1.08346 2.70623 7.8063e-20)
(1.08975 2.48871 -2.8126e-19)
(0.985368 2.23495 -3.06978e-20)
(0.504582 1.36525 0)
(0.517546 1.08067 -9.04588e-20)
(0.561689 1.15933 0)
(0.860246 0.212412 0)
(0.805101 0.168051 0)
(0.760789 0.146624 0)
(0.854796 0.2219 -6.10747e-19)
(0.781971 0.213675 3.60538e-19)
(0.93635 0.0641906 -3.76407e-19)
(0.950235 0.108877 0)
(0.927351 0.114641 1.62952e-19)
(0.871577 0.0910569 6.54274e-19)
(0.852335 0.0518534 -4.08606e-19)
(1.16204 3.3617 -7.66975e-19)
(1.20969 3.2809 0)
(1.16046 3.38989 -1.56672e-18)
(0.647745 3.5508 1.33367e-18)
(0.872463 3.11835 1.26751e-19)
(0.512292 0.854931 5.3892e-19)
(0.430781 0.849249 0)
(0.339188 0.503283 -1.41469e-19)
(0.442342 0.687235 -7.86492e-19)
(0.530186 0.476037 -1.95141e-19)
(0.505136 0.526879 2.2159e-19)
(0.651733 0.541389 4.83362e-19)
(0.679216 0.558636 0)
(0.633023 0.623657 0)
(0.590474 0.560756 0)
(0.959717 0.59645 8.04982e-20)
(0.882793 0.534843 -4.92321e-19)
(0.905589 0.566722 3.67393e-19)
(0.940762 0.502032 -3.80577e-19)
(1.04466 0.476832 0)
(1.05461 0.565398 -9.1226e-20)
(0.838401 0.386579 -8.05499e-19)
(0.842544 0.371405 1.27854e-18)
(0.790714 0.38662 6.28865e-19)
(0.785955 0.355809 -6.51155e-19)
(0.838015 0.309224 -5.04996e-19)
(0.792662 0.308005 6.20709e-19)
(1.02682 0.00543761 -4.56766e-19)
(1.02639 0.005821 9.36538e-19)
(1.02927 -0.000494151 5.70444e-19)
(1.03317 0.000653814 -6.87353e-19)
(1.03284 0.00778702 0)
(1.03002 0.00864343 -1.11279e-18)
(0.0543468 1.64291 1.05215e-20)
(0.0398725 1.56875 0)
(0.0768417 1.69378 3.9386e-20)
(0.0900256 1.67833 -3.06302e-20)
(0.0777917 1.51548 -1.73516e-20)
(0.0841727 1.50133 0)
(0.0393522 1.73642 0)
(0.0502013 1.58132 1.92962e-20)
(0.080727 1.49154 -1.73715e-20)
(0.0640069 1.65626 2.05797e-20)
(0.0234108 1.9584 4.25429e-20)
(0.0106205 1.96829 4.92425e-20)
(0.500636 1.37742 -1.56814e-19)
(0.494461 1.38364 -1.77046e-19)
(0.44121 1.2828 4.33247e-20)
(0.437194 1.29532 2.33793e-21)
(0.625222 1.28827 0)
(0.539958 1.37603 1.66768e-19)
(0.558456 1.38448 -1.62419e-19)
(0.448418 1.2718 -4.1727e-20)
(0.507359 1.22485 0)
(0.563125 1.1956 0)
(0.659608 2.43661 4.81959e-19)
(0.670082 2.47112 1.13951e-18)
(0.71735 2.48553 -7.84221e-19)
(0.618836 2.46562 -1.92099e-19)
(0.563584 2.5555 2.52333e-19)
(0.512783 2.52834 -6.74566e-19)
(0.974444 2.37929 -5.25854e-19)
(1.01242 2.3945 0)
(0.920451 2.16587 -6.13267e-19)
(1.05301 2.68619 0)
(1.05527 2.67306 0)
(0.612638 2.2783 -5.39387e-20)
(1.04246 3.16466 1.96156e-19)
(0.913511 3.03513 -1.09409e-19)
(0.283332 0.920477 0)
(0.322786 0.781918 -2.90606e-19)
(0.479089 0.735639 -1.14231e-18)
(0.390333 2.02678 0)
(0.468777 2.78748 -8.82436e-20)
(0.424051 2.55157 0)
(0.677078 0.686056 -7.69309e-19)
(0.757987 0.681012 1.04836e-18)
(0.777156 0.624888 6.69161e-19)
(0.657925 0.648063 1.00897e-19)
(0.713752 0.600282 -4.18642e-19)
(1.00458 2.76827 -1.49151e-19)
(1.04174 2.82403 -8.83881e-20)
(0.639985 2.15296 5.63974e-19)
(0.597226 1.72098 -4.0793e-19)
(0.700521 1.91058 -3.21485e-19)
(0.990401 2.45125 -1.07452e-19)
(0.995367 2.44394 2.21906e-19)
(0.660471 1.84969 2.26097e-20)
(0.452424 1.3399 4.54843e-19)
)
;

boundaryField
{
    wall-4
    {
        type            noSlip;
    }
    velocity-inlet-5
    {
        type            fixedValue;
        value           uniform (1 0 0);
    }
    velocity-inlet-6
    {
        type            fixedValue;
        value           uniform (0 3 0);
    }
    pressure-outlet-7
    {
        type            zeroGradient;
    }
    wall-8
    {
        type            noSlip;
    }
    frontAndBackPlanes
    {
        type            empty;
    }
}


// ************************************************************************* //
