/*--------------------------------*- C++ -*----------------------------------*\
| =========                 |                                                 |
| \\      /  F ield         | OpenFOAM: The Open Source CFD Toolbox           |
|  \\    /   O peration     | Version:  2412                                  |
|   \\  /    A nd           | Website:  www.openfoam.com                      |
|    \\/     M anipulation  |                                                 |
\*---------------------------------------------------------------------------*/
FoamFile
{
    version     2.0;
    format      ascii;
    arch        "LSB;label=32;scalar=64";
    class       volVectorField;
    location    "1";
    object      U;
}
// * * * * * * * * * * * * * * * * * * * * * * * * * * * * * * * * * * * * * //

dimensions      [0 1 -1 0 0 0 0];

internalField   nonuniform List<vector> 
38
(
(0.821533 -0.191725 0)
(0.887184 -0.00192684 0)
(0.682205 -0.057172 0)
(0.856266 0.00086053 0)
(1.05484 0.0540479 0)
(1.00721 -0.000294093 0)
(0.891372 -0.00273239 0)
(0.939255 -0.0846491 0)
(0.970524 -0.00299621 0)
(0.929811 0.017652 0)
(1.03655 0.0220147 0)
(0.996096 -0.00520507 0)
(0.99593 0.00373049 0)
(0.992546 -0.0267312 0)
(0.965711 0.00980227 0)
(0.950224 -0.00185293 0)
(0.983533 -0.0490341 0)
(1.05314 -0.0852983 1.49589e-18)
(1.0567 -0.0171659 5.13327e-20)
(0.911659 -0.0180345 -3.17529e-18)
(0.998485 0.00150315 -4.09257e-21)
(0.981575 -0.0850533 0)
(0.984878 -0.0619802 0)
(0.966941 0.0499854 1.91202e-18)
(1.00241 0.0289664 -2.25236e-18)
(1.10892 -0.0542787 0)
(0.971855 -0.0739276 -1.90801e-18)
(1.04721 0.0388576 2.27936e-18)
(1.11081 0.0285579 0)
(1.02871 0.0209625 0)
(0.99365 0.0257732 0)
(1.02446 0.0618829 0)
(1.00023 -0.0134954 0)
(0.928693 0.0451927 0)
(0.98221 0.117395 0)
(1.0034 0.0826518 0)
(1.00161 -0.0935495 6.43055e-20)
(0.966395 -0.110217 -1.15001e-18)
)
;

boundaryField
{
    wall-4
    {
        type            noSlip;
    }
    velocity-inlet-5
    {
        type            fixedValue;
        value           uniform (1 0 0);
    }
    velocity-inlet-6
    {
        type            fixedValue;
        value           nonuniform List<vector> 0();
    }
    pressure-outlet-7
    {
        type            zeroGradient;
    }
    wall-8
    {
        type            noSlip;
    }
    frontAndBackPlanes
    {
        type            empty;
    }
    procBoundary4to1
    {
        type            processor;
        value           nonuniform List<vector> 2((0.982361 -0.0164513 0) (1.00631 0.0423516 0));
    }
    procBoundary4to3
    {
        type            processor;
        value           nonuniform List<vector> 3((0.951018 0.0739779 -8.10281e-18) (0.984762 0.00359724 0) (0.897648 0.00863912 0));
    }
    procBoundary4to5
    {
        type            processor;
        value           nonuniform List<vector> 6((1.02026 0.0622912 2.30111e-18) (1.00598 0.020583 0) (0.960004 0.00100727 0) (0.967241 -0.0446401 0) (1.01358 0.0947463 7.32992e-20) (1.01652 0.00860463 -1.12942e-18));
    }
}


// ************************************************************************* //
