/*--------------------------------*- C++ -*----------------------------------*\
| =========                 |                                                 |
| \\      /  F ield         | OpenFOAM: The Open Source CFD Toolbox           |
|  \\    /   O peration     | Version:  2412                                  |
|   \\  /    A nd           | Website:  www.openfoam.com                      |
|    \\/     M anipulation  |                                                 |
\*---------------------------------------------------------------------------*/
FoamFile
{
    version     2.0;
    format      ascii;
    arch        "LSB;label=32;scalar=64";
    class       volVectorField;
    location    "6";
    object      U;
}
// * * * * * * * * * * * * * * * * * * * * * * * * * * * * * * * * * * * * * //

dimensions      [0 1 -1 0 0 0 0];

internalField   nonuniform List<vector> 
38
(
(-0.00126852 2.79729 0)
(-0.000379635 2.63992 0)
(0.929868 0.00424171 0)
(0.0252043 2.93022 1.79744e-24)
(0.00322367 2.82661 0)
(0.0330677 2.91523 0)
(-0.0110895 2.74524 0)
(-0.0399774 2.87279 5.27182e-19)
(0.0435721 2.90505 0)
(0.05518 2.88009 0)
(-0.0168157 2.69902 0)
(0.96536 0.00228929 0)
(0.932002 -0.00466757 0)
(0.0105683 2.98299 5.95683e-19)
(-0.0328888 2.87198 4.76654e-20)
(0.0221226 2.98847 -4.83676e-19)
(0.0436209 3.02161 0)
(-0.0347717 2.88948 0)
(0.00213706 3.11866 -1.51051e-18)
(0.0163024 3.11742 1.62032e-18)
(-0.00161418 2.97812 -6.27298e-19)
(0.0620959 3.1932 3.13562e-19)
(1.00442 0.0125163 0)
(0.0316204 3.06671 -7.83359e-19)
(0.0729818 2.83761 -5.85466e-20)
(0.181833 3.17253 1.36666e-18)
(0.179885 3.20886 -1.11754e-19)
(0.0148591 3.1445 1.93752e-19)
(0.0878002 3.15113 7.66416e-19)
(0.0853161 3.17237 -3.81195e-19)
(0.0239336 3.13216 0)
(0.132153 2.82768 -1.10412e-18)
(-0.0170327 2.3921 7.37834e-19)
(0.0102225 3.11974 3.81334e-20)
(0.0183322 3.12813 -4.63416e-19)
(0.0172214 3.12455 6.82094e-19)
(0.0401891 3.13842 0)
(0.0378875 3.14708 0)
)
;

boundaryField
{
    wall-4
    {
        type            noSlip;
    }
    velocity-inlet-5
    {
        type            fixedValue;
        value           nonuniform List<vector> 0();
    }
    velocity-inlet-6
    {
        type            fixedValue;
        value           nonuniform List<vector> 0();
    }
    pressure-outlet-7
    {
        type            zeroGradient;
    }
    wall-8
    {
        type            noSlip;
    }
    frontAndBackPlanes
    {
        type            empty;
    }
    procBoundary1to0
    {
        type            processor;
        value           nonuniform List<vector> 2((0.971151 -0.00504613 0) (1.01242 0.0088392 0));
    }
    procBoundary1to2
    {
        type            processor;
        value           nonuniform List<vector> 4((0.00135851 3.10468 1.81141e-18) (0.0195923 2.94347 1.02654e-18) (0.00135851 3.10468 1.81141e-18) (-0.0197695 2.88336 -6.94659e-19));
    }
    procBoundary1to4
    {
        type            processor;
        value           nonuniform List<vector> 2((0.960269 0.00461462 0) (1.00175 0.0116132 0));
    }
    procBoundary1to7
    {
        type            processor;
        value           uniform (0.0868032 0.187495 -2.98978e-19);
    }
    procBoundary1to20
    {
        type            processor;
        value           nonuniform List<vector> 3((-0.0180444 2.93048 0) (0.162366 3.2669 0) (0.172235 2.92351 3.71749e-19));
    }
}


// ************************************************************************* //
