/*--------------------------------*- C++ -*----------------------------------*\
| =========                 |                                                 |
| \\      /  F ield         | OpenFOAM: The Open Source CFD Toolbox           |
|  \\    /   O peration     | Version:  2412                                  |
|   \\  /    A nd           | Website:  www.openfoam.com                      |
|    \\/     M anipulation  |                                                 |
\*---------------------------------------------------------------------------*/
FoamFile
{
    version     2.0;
    format      ascii;
    arch        "LSB;label=32;scalar=64";
    class       surfaceScalarField;
    location    "1";
    object      phi;
}
// * * * * * * * * * * * * * * * * * * * * * * * * * * * * * * * * * * * * * //

dimensions      [0 3 -1 0 0 0 0];

oriented        oriented;

internalField   nonuniform List<scalar> 
48
(
5.92952
-0.911706
-5.01781
4.41841
-8.08182
-6.25687
-0.832534
-5.05567
5.88821
4.8378
-5.67034
-2.78749
5.54409
-2.75659
4.70059
-1.37467
5.62562
4.70819
1.22132
2.32932
7.10656
-0.378142
-5.87873
-1.54319
5.66144
-4.11825
3.16501
-5.43382
0.227622
3.48706
3.61951
-7.17604
-0.90578
-6.78451
3.16717
4.71065
0.592399
2.63106
3.93483
-1.56376
2.56016
5.04675
5.63915
-1.59827
-4.07207
4.35486
-1.7947
3.84445
)
;

boundaryField
{
    wall-4
    {
        type            calculated;
        value           nonuniform List<scalar> 0();
    }
    velocity-inlet-5
    {
        type            calculated;
        value           nonuniform List<scalar> 0();
    }
    velocity-inlet-6
    {
        type            calculated;
        value           nonuniform List<scalar> 0();
    }
    pressure-outlet-7
    {
        type            calculated;
        value           nonuniform List<scalar> 0();
    }
    wall-8
    {
        type            calculated;
        value           nonuniform List<scalar> 0();
    }
    frontAndBackPlanes
    {
        type            empty;
    }
    procBoundary19to6
    {
        type            processor;
        value           nonuniform List<scalar> 4(-3.68898 -3.24103 -4.77724 -2.38675);
    }
    procBoundary19to7
    {
        type            processor;
        value           uniform -1.83667;
    }
    procBoundary19to18
    {
        type            processor;
        value           nonuniform List<scalar> 4(2.83813 -0.925026 2.37692 8.00497);
    }
    procBoundary19to20
    {
        type            processor;
        value           nonuniform List<scalar> 5(-3.32593 -3.48933 -0.794392 -6.61051 -2.37107);
    }
    procBoundary19to21
    {
        type            processor;
        value           nonuniform List<scalar> 4(3.66341 10.6753 3.80441 2.0838);
    }
}


// ************************************************************************* //
