/*--------------------------------*- C++ -*----------------------------------*\
| =========                 |                                                 |
| \\      /  F ield         | OpenFOAM: The Open Source CFD Toolbox           |
|  \\    /   O peration     | Version:  2412                                  |
|   \\  /    A nd           | Website:  www.openfoam.com                      |
|    \\/     M anipulation  |                                                 |
\*---------------------------------------------------------------------------*/
FoamFile
{
    version     2.0;
    format      ascii;
    arch        "LSB;label=32;scalar=64";
    class       volVectorField;
    location    "1";
    object      U;
}
// * * * * * * * * * * * * * * * * * * * * * * * * * * * * * * * * * * * * * //

dimensions      [0 1 -1 0 0 0 0];

internalField   nonuniform List<vector> 
38
(
(0.202674 1.08437 -1.14938e-18)
(0.911268 1.32545 0)
(0.638484 1.40619 0)
(0.643228 1.51967 5.55725e-19)
(0.611442 1.56043 -6.03476e-19)
(0.759126 1.5771 -8.62517e-19)
(0.737176 1.7646 2.18479e-19)
(0.872603 1.70632 -9.02065e-19)
(0.814614 1.67112 1.3406e-18)
(0.387218 1.32641 -1.2436e-19)
(0.461121 1.0015 1.02819e-18)
(0.617843 1.08364 1.34688e-18)
(0.47246 1.49921 0)
(0.535522 1.40851 -1.28503e-18)
(0.446773 1.27124 -8.87076e-20)
(0.7185 1.51153 0)
(0.641682 1.5755 2.06059e-18)
(0.685825 1.28645 -4.29065e-19)
(0.912744 1.18476 0)
(0.760774 1.09703 -2.30841e-19)
(0.406267 1.4874 0)
(0.446677 1.25864 0)
(0.7111 1.54982 -5.98014e-19)
(0.701661 1.53173 9.94197e-19)
(0.578641 1.57606 -4.87498e-19)
(0.162779 1.50727 1.47953e-18)
(0.243956 1.55003 0)
(-0.1461 0.830028 -2.43313e-19)
(-0.027937 1.01903 1.83692e-18)
(0.566057 1.80813 -4.95982e-19)
(0.635114 1.70802 -1.17278e-18)
(0.523777 1.83801 8.76287e-19)
(0.522234 1.73428 -9.97122e-19)
(0.603497 1.5897 -1.40896e-18)
(0.635769 1.7058 -1.14343e-19)
(0.666382 1.66132 1.1822e-18)
(0.534089 1.68765 8.8317e-20)
(0.536772 1.57206 6.32717e-19)
)
;

boundaryField
{
    wall-4
    {
        type            noSlip;
    }
    velocity-inlet-5
    {
        type            fixedValue;
        value           nonuniform List<vector> 0();
    }
    velocity-inlet-6
    {
        type            fixedValue;
        value           nonuniform List<vector> 0();
    }
    pressure-outlet-7
    {
        type            zeroGradient;
    }
    wall-8
    {
        type            noSlip;
    }
    frontAndBackPlanes
    {
        type            empty;
    }
    procBoundary19to6
    {
        type            processor;
        value           nonuniform List<vector> 4((0.797293 1.14892 -4.93103e-19) (0.469596 0.901636 1.02521e-18) (0.717816 0.9399 1.15183e-18) (0.242501 0.775424 1.40542e-18));
    }
    procBoundary19to7
    {
        type            processor;
        value           uniform (-0.233992 0.49699 -1.06097e-18);
    }
    procBoundary19to18
    {
        type            processor;
        value           nonuniform List<vector> 4((0.90758 1.6081 -2.13013e-18) (1.07172 1.76192 5.55223e-19) (0.741118 1.505 -8.6694e-19) (0.708305 1.54243 -3.18363e-19));
    }
    procBoundary19to20
    {
        type            processor;
        value           nonuniform List<vector> 5((0.86776 2.05956 2.54069e-19) (0.00589483 1.56973 3.16606e-18) (-0.365403 1.45722 -1.10149e-18) (0.490327 1.84884 -8.80259e-19) (0.507306 2.00522 -6.74361e-19));
    }
    procBoundary19to21
    {
        type            processor;
        value           nonuniform List<vector> 4((0.874047 1.56847 -3.05308e-19) (0.785811 1.59247 0) (0.579363 1.52463 0) (0.636052 1.53843 0));
    }
}


// ************************************************************************* //
