/*--------------------------------*- C++ -*----------------------------------*\
| =========                 |                                                 |
| \\      /  F ield         | OpenFOAM: The Open Source CFD Toolbox           |
|  \\    /   O peration     | Version:  2412                                  |
|   \\  /    A nd           | Website:  www.openfoam.com                      |
|    \\/     M anipulation  |                                                 |
\*---------------------------------------------------------------------------*/
FoamFile
{
    version     2.0;
    format      ascii;
    arch        "LSB;label=32;scalar=64";
    class       volScalarField;
    location    "31";
    object      p;
}
// * * * * * * * * * * * * * * * * * * * * * * * * * * * * * * * * * * * * * //

dimensions      [0 2 -2 0 0 0 0];

internalField   nonuniform List<scalar> 
918
(
0.454255
1.10773
0.00597887
0.453525
-0.0350662
1.07475
-0.605661
0.625861
0.43436
-0.188807
-0.1333
0.427915
0.935441
0.700241
-1.2324
-0.0249344
0.57725
-0.483459
0.433353
-0.220344
0.659269
0.440981
0.444019
0.434611
0.494335
0.681449
0.816098
-0.0680342
-0.00313023
-0.0504229
-0.0918674
-0.15708
-0.166045
0.9584
1.00948
1.03216
0.402897
0.229648
-0.464029
-0.535915
-0.52742
-0.654401
0.617822
0.620285
-0.271112
0.626143
0.636331
0.421638
0.433724
0.434627
0.435736
0.434672
0.436078
0.316617
-0.197737
-0.225739
-0.166799
-0.160709
-0.00796438
-0.130215
-0.134824
-0.136566
-0.147787
0.355069
0.424288
0.421439
0.432536
0.439797
1.04728
1.01921
1.04534
0.959014
0.975496
0.913425
0.885936
0.721821
0.743565
0.684376
0.67206
-1.67076
-2.63463
-0.635784
-0.381221
-0.0376588
0.0182742
-0.0145152
0.567563
0.568438
0.577816
0.590135
0.97539
-0.480464
-0.610086
0.433494
0.432281
0.440674
0.441362
0.43737
0.436464
-0.232238
-0.218996
-0.135246
-0.216374
-0.187004
0.647645
0.646534
0.435157
0.432181
0.447363
0.467232
0.459373
0.190247
0.499761
0.515333
0.502031
0.66898
0.664926
0.673122
0.789695
0.752403
0.853291
0.876684
-0.0395896
-0.0301824
-0.025277
-0.112294
-0.0819953
0.398869
0.391648
0.41738
0.406233
0.408636
0.144741
0.00879601
0.316246
0.341574
-0.373875
-0.437574
-0.541184
-0.558918
-0.6735
0.494314
0.606128
0.606972
-0.29055
-0.210339
-0.348926
-0.13675
-0.19908
0.412122
0.418954
0.41405
0.429375
0.423888
0.42582
0.437946
0.435039
0.436589
0.379088
0.501722
0.242643
0.20967
-0.342881
-0.245682
-0.342834
-0.150446
-0.144883
-0.00471085
0.0152151
-0.0134774
-0.02347
-0.141672
-0.137624
-0.141695
-0.161573
-0.17017
0.347833
0.337246
0.366933
0.373893
0.415207
0.416209
0.419082
0.417744
0.836786
0.859245
0.866609
0.840319
-3.63729
-6.44395
-0.0515513
0.0879499
-0.0844695
-0.0828701
-0.0409323
-0.0697109
-0.032035
-0.013374
-0.0184764
-0.0313819
-0.0039456
-0.00342734
0.552782
0.552899
0.892005
0.887937
0.876782
0.827081
0.421504
0.42365
0.429214
0.425062
-0.191913
-0.208892
-0.19899
0.634281
0.641661
0.641507
0.154336
0.0705929
0.23777
0.264944
0.538428
0.520935
0.535655
0.564435
0.599771
0.884215
0.902387
0.900643
0.90893
0.952976
0.969385
0.934711
0.379335
0.388705
0.383971
0.420664
0.418312
0.419285
0.414517
0.416177
0.413885
-0.143919
-0.528739
0.40135
0.417158
0.390597
0.400573
0.570112
0.641131
0.589268
0.597617
0.598504
-0.0705519
-0.128596
0.164997
0.134032
0.290919
0.325417
0.30557
0.807964
0.768206
0.818263
0.791802
0.753121
0.779432
-0.480739
-1.99664
-1.1068
0.443991
0.254799
0.343749
-0.0342875
-0.0358697
-0.025037
0.878782
0.958486
0.559011
0.721304
0.732805
0.638842
0.669626
0.725521
0.648313
0.684856
0.722016
0.703335
0.452128
0.413327
0.413853
0.709087
0.764415
0.0436696
-0.00987945
-0.0546572
0.0322624
0.0910206
0.0651294
0.92591
0.82218
0.894904
0.43192
0.432605
-0.12675
-0.158746
0.436709
0.436724
-0.121328
-0.19727
0.325654
-0.94214
0.0319419
0.425139
0.415498
0.432364
-0.178863
0.271728
-0.123527
-0.0130921
-0.054765
0.425352
0.364497
0.326445
-0.196581
-0.0673219
-0.234315
-0.305016
0.42959
0.427904
0.43183
0.432849
0.433497
-0.233919
-0.202554
-0.163155
-0.288581
-0.227506
-0.237707
0.397263
0.414038
-0.25879
0.431958
0.434096
0.433909
0.42706
0.432703
0.430958
-0.104853
-0.161749
-0.113903
0.140411
0.257524
0.573295
0.669553
0.538063
0.311255
0.0719471
0.472942
0.538723
0.440733
0.599722
0.599203
0.616892
0.0941193
-0.0534317
0.102693
0.0465629
0.423021
0.421673
0.413759
0.41089
0.42724
0.425333
0.429893
0.426836
0.429786
0.431229
-0.133215
-0.149559
-0.175351
-0.233509
0.231924
0.492175
0.165253
0.196824
0.0708711
-0.118828
-0.124427
-0.12458
-0.135487
-0.0776321
-0.0766356
-0.0246027
-0.00929281
-0.0316675
-0.0496373
-0.0783116
-0.08591
-0.0948339
0.419219
0.418124
0.424167
0.431762
0.373561
0.377587
0.344196
0.363764
0.349597
0.29168
0.325726
0.300737
-0.118131
-0.195718
-0.106647
-0.0938908
-0.0415502
-0.282085
-0.306878
-0.328913
-0.260243
-0.274958
-0.220878
-0.221263
-0.264922
-0.378504
0.878423
0.820236
0.0154806
0.418832
0.425201
0.422035
0.426765
0.429869
0.430762
0.42851
0.425028
0.414669
0.416485
0.412814
0.413292
-0.199128
-0.336462
-0.160135
-0.227295
0.0379209
0.530974
0.27105
0.212158
0.205942
0.425599
0.820767
0.617529
0.616228
0.63996
-0.446187
-0.0496349
-0.379173
0.23901
0.0614674
0.572808
0.623045
0.644376
0.591841
0.543337
-0.215117
0.444059
-0.14676
-0.102504
0.0891317
-0.0175016
0.616618
0.582221
0.587125
0.604197
0.622873
0.587866
0.566316
0.561323
0.600822
0.606522
0.399825
0.173062
0.12848
0.0904028
0.566066
0.441258
0.499599
0.413229
0.417882
0.420737
0.419309
0.402006
0.409158
0.404959
0.410563
0.41371
0.422964
0.423292
0.418747
0.420947
-0.13713
-0.143684
-0.116502
-0.229876
-0.217814
-0.273756
-0.159104
-0.0249092
-0.0568526
0.131253
0.237829
-0.0511602
-0.164193
-0.134299
-0.105074
0.075814
0.101373
-0.0109347
0.0874874
0.0649129
0.0519512
0.152677
0.16209
-0.11062
-0.10787
-0.119714
-0.118224
-0.0440621
0.020258
0.0330285
-0.102355
-0.0754551
-0.12297
-0.146113
-0.110371
-0.110052
-0.103184
-0.0711251
-0.234136
-0.143436
-0.115671
-0.111328
-0.0748085
-0.0823303
0.413263
0.414997
0.414868
0.422163
0.437852
0.452515
0.415175
0.395331
0.386499
0.38941
0.363797
0.373489
0.37005
0.382259
0.402154
0.410257
0.408769
0.411254
0.394577
0.396192
0.383799
0.386948
0.364147
0.346004
0.334688
-0.223416
-0.211743
-0.227848
-0.152093
-0.146456
-0.138931
-0.0569735
-0.0695106
-0.0680686
-0.0494983
-0.0482831
-0.305577
-0.29316
-0.176131
-0.0992605
-0.283282
-0.315244
-0.384213
0.785245
0.900259
0.711742
0.491161
0.497814
0.734046
0.823385
0.457088
0.63274
0.660758
0.466465
0.725437
0.42361
0.423177
0.420845
0.420315
0.421547
-0.112299
-0.0129
-0.00124
0.0521808
0.169846
0.284482
0.199415
0.0718824
0.206686
0.213252
0.525471
0.541811
0.487895
0.51217
0.509776
0.337738
0.414909
0.470314
0.423471
0.468749
0.49105
0.451768
0.482148
0.428381
0.38592
0.384686
0.330512
0.35139
0.329242
0.311438
0.413178
0.391286
0.401586
0.392214
0.411879
0.438455
0.432862
0.459329
0.470849
0.397503
0.35784
0.367322
0.395322
0.356349
0.369289
0.384763
0.119378
0.0192407
0.104628
-0.187792
-0.10658
-0.122328
-0.168882
-0.123415
0.163084
-0.536057
-0.509607
-1.1431
0.384866
0.851973
0.571224
0.542135
0.618313
0.596507
0.599242
0.622606
0.629882
0.555774
0.573098
0.577606
0.531387
0.555172
0.577738
0.57617
0.416306
0.292006
0.283067
0.244013
0.12068
0.153512
0.356631
0.2784
0.205834
0.210742
0.373346
0.263372
0.329199
0.367402
0.299121
0.254661
0.456245
0.523334
0.513973
0.489221
0.405045
0.417226
0.443067
0.478567
0.505624
0.537994
0.410415
0.416213
0.417499
0.415077
0.412199
0.415046
0.415089
0.41763
0.418511
0.421439
0.420411
-0.133137
-0.123483
-0.131031
-0.139471
-0.109901
-0.116975
-0.0683035
-0.0793437
-0.0950995
-0.0873162
-0.116042
-0.120239
-0.111423
-0.104373
0.00581511
0.0218263
0.0117209
-0.0340223
0.144025
0.27777
0.343264
0.224043
0.117095
0.143255
0.169651
-0.0985988
-0.0520292
-0.0720558
-0.0351932
-0.0519349
-0.125369
-0.142066
-0.148746
-0.0958716
-0.106085
-0.173344
-0.21369
-0.196205
-0.18338
-0.155144
-0.189251
0.397626
0.391277
0.392308
0.38653
0.385436
0.398817
0.402948
0.404719
0.409903
0.411648
0.402466
0.407771
0.411139
-0.168255
-0.25755
-0.230638
-0.188839
-0.216279
-0.262416
-0.226595
0.00999129
-0.0633799
-0.057412
-0.0991536
-0.22132
-0.166737
0.374818
0.374381
0.383199
0.599915
0.452353
0.372369
0.468757
0.57254
0.156264
0.356881
0.18827
0.770382
0.66104
0.805292
0.427162
0.132378
0.287199
0.33667
0.146014
0.218681
0.223609
0.11319
0.145603
0.176321
0.275432
0.156275
0.130928
-0.112818
0.0734565
0.193232
0.173528
0.304795
0.369433
0.145959
0.0696891
0.0240121
0.517511
0.537539
0.556342
0.526005
0.550879
0.473077
0.464852
0.48299
0.491082
0.484991
-0.870986
-0.578473
-1.52363
-0.838637
-0.388167
0.415906
0.379743
0.65235
0.543146
0.608608
0.594241
0.554937
0.520582
0.532357
0.564908
0.266638
0.37635
0.350617
0.357184
0.26003
0.193559
0.492102
0.485463
0.522535
0.546506
0.512929
0.546625
0.40828
0.407934
0.407322
0.404029
0.402596
0.404618
-0.0259118
-0.0573501
-0.0251087
-0.0475556
-0.0716918
-0.0805432
-0.123961
-0.142548
-0.16201
-0.172585
-0.158406
-0.118944
0.049766
-0.00709778
-0.0820892
-0.0531331
-0.110105
-0.173217
-0.192959
-0.0945454
-0.00557925
-0.0133448
0.289128
0.540177
0.363284
0.532442
0.370652
0.426562
0.374501
0.365469
0.396065
0.272221
0.349022
0.116214
-0.388187
-0.296801
0.669087
0.687973
0.473032
0.286639
0.0567234
0.244715
0.443779
0.381451
0.420566
0.488904
0.481403
-0.0984301
-0.0317594
0.230838
0.459072
0.125394
0.116316
0.111708
0.28659
0.210364
)
;

boundaryField
{
    wall-4
    {
        type            zeroGradient;
    }
    velocity-inlet-5
    {
        type            zeroGradient;
    }
    velocity-inlet-6
    {
        type            zeroGradient;
    }
    pressure-outlet-7
    {
        type            fixedValue;
        value           uniform 0;
    }
    wall-8
    {
        type            zeroGradient;
    }
    frontAndBackPlanes
    {
        type            empty;
    }
}


// ************************************************************************* //
