/*--------------------------------*- C++ -*----------------------------------*\
| =========                 |                                                 |
| \\      /  F ield         | OpenFOAM: The Open Source CFD Toolbox           |
|  \\    /   O peration     | Version:  2412                                  |
|   \\  /    A nd           | Website:  www.openfoam.com                      |
|    \\/     M anipulation  |                                                 |
\*---------------------------------------------------------------------------*/
FoamFile
{
    version     2.0;
    format      ascii;
    arch        "LSB;label=32;scalar=64";
    class       surfaceScalarField;
    location    "31";
    object      phi;
}
// * * * * * * * * * * * * * * * * * * * * * * * * * * * * * * * * * * * * * //

dimensions      [0 3 -1 0 0 0 0];

oriented        oriented;

internalField   nonuniform List<scalar> 
1300
(
3.75095
5.62643
-4.26797
3.75095
-4.88767
5.62643
-4.45275
4.45275
-1.05092
1.05092
1.87645
1.8745
-2.98748
2.98748
-2.43832
2.43832
-2.56298
2.56298
-5.24639
5.24639
-5.06841
5.06841
4.66826
-4.66826
-5.05853
5.05853
-1.42266
1.42266
-3.8595
3.8595
3.16976
-3.16976
-2.35109
2.35109
-0.278025
0.278025
-0.553545
4.3045
3.19741
3.19741
-2.08611
2.08611
-4.86227
4.86227
6.21805
-6.21805
5.94355
-5.94355
-1.67557
-3.22076
1.3253
-10.1643
-3.56236
-3.56236
-8.44039
8.44039
-2.81396
2.81247
2.94305
-2.94305
-1.78443
1.78443
-4.39499
-0.057757
-4.39499
4.44379
0.00895267
4.44379
-1.15876
0.107843
-1.15876
3.95123
-3.95123
0.894149
0.156768
0.894149
3.06462
-3.06462
-1.87707
3.75352
1.87388
-1.87185
6.17635
-1.8791
3.7536
-5.92014
5.92014
-3.20175
0.214272
-3.20175
2.78077
0.206709
2.78077
-6.7084
6.7084
-2.4431
0.00477377
-2.4431
2.3577
0.0806257
2.3577
2.86446
-2.86446
-2.66078
0.0977947
-2.66078
2.45341
0.109571
2.45341
0.35354
5.27289
-5.97997
8.79244
-5.27289
0.0264994
5.20837
0.0380174
5.20837
-5.106
0.0375882
-5.106
5.01225
0.056166
5.01225
4.75963
-0.0913693
4.75963
-4.78303
0.114769
-4.78303
-2.961
-5.29269
-5.72255
0.66402
-5.72255
-1.42592
0.00325907
-1.42592
1.38134
0.0413255
1.38134
-3.56898
3.56898
-4.23098
0.371483
-4.23098
3.12423
0.0455273
3.12423
1.86853
1.88243
5.61948
-5.61948
2.44972
-2.27148
-0.0796093
-2.27148
-2.48395
-3.45959
2.48395
-0.13286
-0.547655
0.26963
-0.547655
3.15921
0.0381978
3.15921
2.30511
0.148301
-2.30511
0.219005
3.20213
-3.20213
1.46463
0.621478
1.46463
-5.56754
5.56754
4.95346
0.0587828
-4.95346
0.0911895
6.1567
0.0613557
6.1567
-6.19959
-0.0184576
-6.19959
1.65086
-4.87163
-3.96798
4.21542
0.843111
-4.21542
0.65306
2.91317
0.0298784
2.91317
-2.92135
2.92135
-2.98288
0.0398303
-2.98288
-2.18574
0.401307
-2.18574
1.48319
0.301244
1.48319
-4.26988
-0.125112
-4.26988
-4.36712
0.136145
4.36712
0.0766699
1.07007
-1.07007
-1.26268
0.103924
-1.26268
-4.10332
-0.166555
4.10332
-0.152087
-3.82591
-0.125328
-3.82591
-3.02331
0.0404372
3.02331
0.0413049
3.11248
0.046733
-3.11248
0.047859
-1.87084
3.75327
-1.88011
3.75399
-5.53781
-0.382331
-5.53781
6.23321
-0.313067
6.23321
3.53906
0.320431
-3.53906
0.337311
2.60478
0.175994
2.60478
-6.69524
-0.0131641
-6.69524
6.65331
0.0550909
6.65331
2.49648
0.108299
-2.49648
0.0533828
2.29715
0.0605493
2.29715
2.87726
-0.0127987
2.87726
-2.86316
-0.00130034
-2.86316
2.80285
-2.80285
2.73587
0.0669818
-2.73587
0.0750884
-11.1327
11.1143
-0.0349928
-11.0978
5.17338
5.17338
4.18948
0.570148
4.18948
-4.99813
0.215101
-4.99813
2.05008
-6.01806
4.95469
-7.91569
5.15699
-15.3213
3.58811
-8.88081
6.42899
-6.42899
6.186
0.242988
-6.186
0.463449
-1.44867
0.0227459
-1.44867
-2.96085
-0.608131
-2.96085
4.2258
-0.656819
4.2258
-3.0293
3.0293
-3.07812
0.0488231
3.07812
0.0461136
2.21605
0.0810946
-2.21605
-0.0554296
0.724295
0.169854
-0.724295
0.176641
3.41309
-0.210962
3.41309
-3.01622
-0.185906
-3.01622
-1.46005
0.0113818
1.46005
0.00458021
-5.81483
0.247294
-5.81483
-11.1908
0.0930424
-11.1528
-6.10655
-6.10655
2.33384
11.1263
-2.88578
0.0226159
2.88578
0.0273918
2.97637
0.0529321
-2.97637
0.0550209
-2.86388
0.0610338
2.86388
0.057462
-2.56279
0.377049
-2.56279
-1.07273
1.07273
-1.24822
0.175489
1.24822
0.234971
1.31189
-0.241819
1.31189
1.33021
0.0511225
-1.33021
0.0675289
-3.71596
-0.109945
-3.71596
6.46393
-0.230721
6.46393
-2.92186
-0.0943666
2.92186
-0.0445967
-0.0333466
11.1476
-5.14003
0.0340337
5.14003
-11.209
11.243
-3.23639
0.673601
3.23639
0.95309
5.28945
0.278091
-5.28945
0.291317
6.5827
0.0706104
-6.5827
0.153709
-2.46951
-0.49134
-2.46951
-4.95607
-0.581743
4.95607
-0.730274
-11.4744
-0.204215
11.6786
-11.4183
6.01905
0.137649
-6.01905
11.3807
-0.997949
-0.0721174
0.997949
0.0747798
1.62371
-0.311826
1.62371
3.60787
-0.194774
-3.60787
-0.108096
-6.61328
-0.0819525
6.61328
-0.149352
-2.03138
-0.438123
2.03138
-0.407672
-4.26697
4.30517
1.90938
-1.22411
-3.64752
-4.6837
1.85205
1.90122
4.30176
-10.0229
-5.29833
-9.36987
7.26693
-6.97562
-9.27214
9.18077
7.60465
-7.72998
-5.78539
5.8315
6.48174
-6.44044
1.87876
1.87476
7.89424
-7.67997
-15.6885
15.3061
7.3949
-7.39013
15.7882
-15.8013
-17.8072
17.8778
-5.72656
5.82435
-6.72379
6.72249
-6.92163
6.87703
-1.96252
-5.95317
13.2849
-12.6209
6.94472
-7.02433
-8.49889
8.87038
3.38239
0.922774
3.42913
-1.88232
3.76108
-1.87128
3.78066
4.3387
-6.30122
1.67936
-5.32688
3.3037
3.64102
-3.17084
-1.51286
-5.91842
5.9483
-5.82223
5.87969
8.93998
-8.99773
-1.88508
3.75985
-1.86891
3.77013
-3.42523
-2.36016
3.37971
0.922058
7.5237
5.76119
-8.36681
-1.00306
-7.84193
7.64716
-8.11359
7.92768
-0.441862
5.82025
-5.37839
4.42041
-1.55899
7.37924
5.70794
5.92304
5.86703
-5.58894
1.10858
-6.48697
-6.39578
-2.54442
2.64834
2.49649
-2.33973
5.97776
1.6269
5.82567
-5.56625
-2.16373
-5.6762
3.82128
2.01023
3.8701
4.07654
2.40521
4.11697
3.03075
-3.03563
0.0048789
-3.05625
6.087
0.72422
-5.41641
-4.49435
4.92198
2.97226
5.12869
-5.48129
-2.19868
-5.14398
-9.56052
-6.12793
-10.1423
10.1208
5.18531
9.80775
-11.9687
11.8193
4.53922
2.85568
4.61985
-4.8866
-2.50353
-4.83322
11.5941
-2.52592
-9.06823
-10.3146
-7.4926
10.2595
5.52862
10.9056
6.9722
11.0593
4.39975
7.1944
-9.92837
2.43577
-3.87045
-1.8561
-3.79537
3.69805
2.1263
3.80762
-4.21293
-2.51086
-4.19031
-4.28264
-2.63899
4.29543
2.42705
-4.38109
-3.7325
4.47545
2.40158
5.17298
-10.4713
3.70782
-9.66099
-9.27674
-3.34413
-8.81329
5.12928
2.22665
-7.35593
-1.17193
8.01168
-4.37066
6.49881
-4.13434
-2.88999
-4.18977
-6.78925
-1.70964
-6.6531
-8.89447
8.40313
-9.20555
8.54873
12.6928
-5.71367
-6.97909
-3.96798
-2.47245
3.92013
-0.490997
-3.71137
3.71625
0.0497044
3.83037
4.75314
4.26214
-3.88739
-1.93483
-3.83237
3.83322
2.04647
3.89426
6.73272
2.20725
6.74168
-6.45008
-2.54766
-6.57519
9.07863
-8.67732
2.91616
-2.90478
5.28155
2.64613
-5.07059
-2.77134
6.19606
-3.12553
-3.07053
-12.2118
10.5603
1.65149
-4.83258
-0.41217
-0.134145
-5.4993
-3.77284
5.38453
0.538512
11.0988
7.326
-5.51382
5.76111
6.16483
6.22361
-0.172168
5.83606
-5.16246
5.33353
-2.42874
-2.90479
5.31628
-5.48284
-1.2589
-5.32761
4.0687
0.342829
1.7317
-1.46207
-2.01345
-0.530966
-1.94592
1.48217
1.01432
1.65203
0.96045
1.68789
-2.94529
0.543991
2.40129
-1.98484
-1.79574
-3.69301
-1.01837
4.71138
5.57583
2.07132
-5.46774
-0.208461
2.71161
-2.67028
-0.796801
-2.8962
2.1053
-2.9021
-3.6003
-1.89244
5.49274
-3.37088
-0.46149
3.31795
0.552153
-3.82495
-2.09347
3.78512
0.33185
-3.12471
6.18992
-3.06521
-5.05954
2.52894
3.55806
4.53916
-4.7902
2.44616
2.34405
-1.23214
4.2147
0.913988
4.3907
-6.71634
4.51766
5.7307
3.13967
-6.05113
0.90715
-5.80919
8.47061
-7.2705
-1.20011
4.09905
4.37155
7.17961
5.51314
-5.74576
12.9254
-1.14051
-6.12999
6.9497
-3.81002
4.76042
-8.57044
-10.2736
4.14357
-9.24296
10.9839
-1.74093
-3.61472
-8.35395
12.8577
-1.22308
-11.6346
8.58467
-4.24236
-4.34706
8.58942
-6.76828
6.85059
-2.00481
-4.84578
-10.1072
-5.69413
10.1891
1.63017
-10.07
12.5058
-2.87564
3.61867
1.00118
3.67922
3.26904
-5.41733
2.14829
3.49924
-5.50404
2.09866
-7.51599
-7.43699
13.1475
-5.71053
-10.7811
-9.85681
-0.924313
2.52445
9.98136
-9.49665
7.36777
2.12888
3.31038
0.583873
-3.37736
-0.418001
0.265286
4.55236
-4.81765
4.0729
4.2212
3.3857
1.16666
3.83931
2.10899
-3.8667
-0.323608
-4.15056
1.51157
-1.72351
-3.6487
5.16027
-4.06849
0.419782
-2.72906
-3.51229
6.24135
-4.58516
3.04006
3.14986
5.08653
-4.90838
1.39609
-2.39992
-2.50846
2.6724
-4.39591
1.93869
3.22158
4.34027
0.607764
7.14438
6.00315
-9.37103
-0.289965
11.7643
-10.7613
2.60161
8.45774
-9.96937
0.11256
-8.70073
1.14504
-5.5157
-6.21089
5.07729
-6.78693
-3.49315
6.13373
0.607942
-6.2104
-0.4427
-6.04148
-2.85299
-6.47961
-3.06408
-6.14147
-8.80984
-1.65353
-7.1563
6.7496
-6.68808
-3.45419
7.41835
1.13037
-7.41083
7.33871
-7.49514
7.18331
0.0946414
3.62161
4.35679
1.88433
-2.38947
4.27381
-5.06501
7.27226
-8.56136
3.49635
4.04925
-6.59691
-4.5121
5.0415
4.03714
5.34274
8.95453
-10.4564
1.50189
-10.785
12.1169
-1.3319
-16.5707
5.78569
-7.61615
2.6549
0.261261
2.67765
0.663577
2.42166
-3.08524
-2.24121
-2.23663
-2.34346
-3.41703
5.76049
1.15446
-3.41842
2.26396
-3.48437
4.63883
-0.0727195
-3.3457
5.28158
-2.85992
5.54284
-3.55709
1.98574
3.33614
5.68916
-2.35302
4.34605
-1.69992
1.84232
-4.19535
-1.57471
-2.97355
5.09986
-3.2678
3.68758
-0.28221
3.96979
-4.08715
0.96162
-0.701447
3.51976
3.73876
4.29055
-3.12389
2.97532
-4.67525
-1.22002
-4.06748
-0.845901
-0.289565
-3.78836
4.07793
6.05003
-6.3396
-5.25717
9.56825
-4.31108
7.72138
-5.40269
-2.31869
-4.27432
-4.403
3.89728
1.93879
9.66017
0.211011
-5.6137
-4.95145
-3.99836
3.2165
2.11704
-1.92922
3.58072
2.06337
-0.331664
0.576833
1.07519
1.85567
-1.27883
0.21024
1.64543
-1.25183
1.99053
0.721082
-2.04165
0.0957264
-1.37669
3.48199
1.02461
-2.03893
0.760094
1.06449
-3.49323
4.83863
-2.48524
-2.35339
5.90312
1.15837
-3.64361
4.16924
-3.82641
2.33148
-3.34986
-1.31213
-5.13854
-3.51164
-2.52687
4.79084
-3.23362
5.30494
1.19053
-5.09648
6.28702
-3.56944
1.677
-3.06576
3.78684
-1.06939
-1.99637
2.78998
2.70276
-2.93165
0.0354473
-0.141669
2.32723
-2.4689
-0.574868
-2.5597
-4.57078
4.90263
-2.10823
4.55439
2.16558
-1.91433
6.46872
1.81168
-3.72601
-3.24787
-3.70936
-1.38196
3.15721
-0.570059
-4.26316
-5.41584
4.15486
0.23584
-6.87796
7.6714
-0.793436
-3.9057
-0.611961
4.71102
-5.9966
0.492561
-3.89795
3.77345
4.68744
4.92328
-11.4453
-0.189299
-6.26
1.15709
-7.41709
5.52864
-3.62032
7.76389
-10.4354
6.98124
-9.30505
6.56378
-0.853305
6.2528
-4.10451
2.81543
-8.50956
-6.87939
5.5301
-2.67442
6.53128
-3.03936
9.57063
-5.915
4.95527
4.61536
-0.738189
-3.45158
-5.264
4.52581
-0.308728
3.37049
4.97362
-2.86463
4.65001
2.25675
-4.65667
-2.13915
-6.4979
1.84122
-3.34804
-1.91466
3.75588
3.17187
3.75575
1.24742
-3.33774
7.91394
-8.83826
-2.20341
-4.00748
5.13157
-0.605755
3.27412
-7.28159
-2.24158
4.8799
-0.811984
-4.06792
0.833761
-4.32691
1.65474
-5.98165
5.1322
-5.5749
2.2045
-9.82064
-5.20633
-5.13155
-2.24466
-5.25048
-7.6321
5.38744
-1.84641
5.4923
-8.61939
7.8074
-3.4975
8.88495
-5.43923
-1.04037
5.84691
1.3364
10.2214
0.182581
-4.69469
-1.89672
3.96779
-2.07106
1.31977
-3.60578
0.362007
2.46988
3.43324
-6.53858
-0.0583313
-4.75302
-3.92684
7.96398
5.6414
11.6914
1.23502
9.15757
-1.19359
10.3926
4.14915
4.38412
-3.06713
4.56902
1.01079
4.50715
-0.841072
2.82682
1.83658
1.83984
0.830448
2.30364
1.43512
3.26526
0.180024
-2.0566
4.63744
-8.6358
-0.97626
-8.06565
1.11512
5.72727
-4.61215
3.11262
-0.995587
1.04156
0.108286
-1.6241
1.51581
-2.79651
-1.95576
-0.310337
-1.60141
2.36151
1.88058
-2.05117
-0.745337
0.314308
-3.82595
3.03555
-3.0001
-0.297343
5.98967
-2.74586
0.276958
-1.06886
-2.28274
-2.81371
2.71798
6.17647
0.292242
3.11126
5.19487
3.10141
0.236776
3.92867
-5.6696
-3.58732
-5.8589
-0.33026
4.38076
1.57407
8.40729
6.18943
5.58368
-1.69792
-10.5362
6.59188
-2.02286
5.25998
-1.19206
-4.78959
4.96442
2.30783
-5.57237
-0.00253279
-4.79212
-6.81498
-0.53328
8.34068
-9.68807
8.6477
5.79471
1.3616
-4.41091
-0.720638
4.23543
0.148698
10.5413
-1.1279
-6.81479
7.94269
-4.59937
3.62311
0.837596
2.74312
2.35341
1.35782
-5.45697
-10.0691
-1.90793
-1.5853
-4.26132
0.450056
-2.33063
6.25223
-2.62912
3.93354
5.31357
6.35513
-2.15512
-4.18448
6.4662
-2.53265
3.82247
)
;

boundaryField
{
    wall-4
    {
        type            calculated;
        value           uniform 0;
    }
    velocity-inlet-5
    {
        type            calculated;
        value           uniform -3.75095;
    }
    velocity-inlet-6
    {
        type            calculated;
        value           uniform -5.62643;
    }
    pressure-outlet-7
    {
        type            calculated;
        value           nonuniform List<scalar> 8(4.26797 4.88767 4.89634 8.83897 8.25369 5.61884 7.00477 8.74511);
    }
    wall-8
    {
        type            calculated;
        value           uniform 0;
    }
    frontAndBackPlanes
    {
        type            empty;
    }
}


// ************************************************************************* //
