/*--------------------------------*- C++ -*----------------------------------*\
| =========                 |                                                 |
| \\      /  F ield         | OpenFOAM: The Open Source CFD Toolbox           |
|  \\    /   O peration     | Version:  2412                                  |
|   \\  /    A nd           | Website:  www.openfoam.com                      |
|    \\/     M anipulation  |                                                 |
\*---------------------------------------------------------------------------*/
FoamFile
{
    version     2.0;
    format      ascii;
    arch        "LSB;label=32;scalar=64";
    class       volVectorField;
    location    "31";
    object      U;
}
// * * * * * * * * * * * * * * * * * * * * * * * * * * * * * * * * * * * * * //

dimensions      [0 1 -1 0 0 0 0];

internalField   nonuniform List<vector> 
918
(
(0.985168 -0.000495027 0)
(0.00500946 2.96625 0)
(-0.0611211 1.11929 0)
(0.979698 0.00215274 0)
(-0.0120559 1.26678 1.40538e-19)
(-0.00704273 2.94879 -2.29628e-18)
(0.834043 1.17831 5.32861e-19)
(0.349576 0.160682 -1.38712e-20)
(0.999905 -0.000293502 0)
(0.0593195 0.856312 0)
(0.0117671 0.685777 0)
(0.734302 -0.010231 0)
(0.0111416 2.93032 0)
(0.0024858 2.79498 0)
(-0.0176457 3.15748 8.77359e-19)
(-0.124176 1.59192 3.13733e-21)
(0.429869 0.0547785 8.99917e-19)
(0.189345 1.19962 4.15542e-19)
(0.962774 0.00502811 0)
(-0.0291504 0.666799 0)
(0.0840242 0.198373 -6.5821e-19)
(1.00198 -0.00498478 0)
(1.00022 -0.0098021 0)
(0.975711 -0.00643841 0)
(0.593887 -0.0429915 0)
(0.0164283 2.63755 0)
(-0.0149124 2.91007 8.32541e-19)
(-0.111793 0.985911 0)
(-0.207888 1.28848 0)
(-0.0815933 1.05619 0)
(-0.122805 2.39624 0)
(0.0428837 1.42336 -1.10675e-19)
(-0.0227533 1.02621 0)
(-0.0206068 2.9876 -8.20169e-23)
(-0.0166905 3.0053 1.78465e-18)
(0.0021045 3.00018 0)
(0.870331 -0.00940209 0)
(0.404709 0.939436 1.12301e-19)
(0.815287 1.19432 -6.59185e-19)
(0.965249 1.03315 6.70007e-19)
(0.684655 1.2878 -1.23494e-19)
(0.683155 1.27343 7.04353e-19)
(0.390222 0.248781 1.35329e-20)
(0.371653 0.132549 0)
(1.14684 0.557313 0)
(0.351927 0.249563 6.20142e-20)
(0.308164 0.165884 -6.43571e-20)
(0.919646 -0.00747799 0)
(1.00027 0.000132715 0)
(0.999911 0.00032832 0)
(1.00364 -0.00778218 0)
(1.00096 -0.000929976 0)
(1.00017 2.5795e-05 0)
(0.0769316 1.78453 -6.0477e-19)
(0.0304296 1.01098 0)
(0.08185 0.917227 0)
(0.0289767 0.950478 0)
(0.0254077 0.785211 0)
(0.0288512 2.00511 0)
(-0.0182329 0.819902 0)
(0.00470866 0.682722 0)
(-0.00835074 0.799906 0)
(-0.00720859 0.658697 0)
(0.835667 -0.0145551 0)
(0.852142 0.0266206 0)
(0.768316 -0.000800229 0)
(0.826624 0.0353208 0)
(0.701439 -0.0147745 0)
(0.0146918 3.0004 8.48719e-19)
(0.0115072 3.00803 0)
(0.00611514 3.00279 0)
(0.0135523 2.99737 9.59107e-24)
(0.00797159 2.95846 -1.26141e-18)
(0.014485 2.982 0)
(0.0108391 2.9036 0)
(0.0246721 2.93037 1.87555e-24)
(0.00442882 2.82521 0)
(0.0313212 2.91605 0)
(-0.0055249 2.74536 0)
(0.308877 3.55484 0)
(-0.131927 3.63647 0)
(0.139781 3.24799 8.16486e-19)
(-0.0125761 2.98301 0)
(-0.314465 2.20624 0)
(-0.126815 1.77565 -3.07677e-21)
(-0.111385 1.78235 8.0755e-21)
(0.511003 0.150662 -3.10978e-19)
(0.428494 0.0319409 -3.00458e-19)
(0.495312 0.175021 -9.37396e-19)
(0.413833 0.0775076 -6.20977e-19)
(0.216244 0.924934 0)
(0.270643 1.33755 -4.67424e-19)
(0.379528 1.28286 7.75942e-19)
(0.98748 0.0085189 0)
(0.941957 0.00583969 0)
(1.0003 0.000572245 0)
(1.00287 0.00929858 0)
(1.00303 0.0084545 -2.22089e-18)
(0.991919 0.00970338 1.67712e-18)
(-0.0123095 0.776856 0)
(-0.00827631 0.624382 0)
(-0.106263 0.97538 0)
(-0.0235028 0.799375 0)
(-0.00660623 0.706777 0)
(0.131206 0.206312 2.03586e-19)
(0.186491 0.18493 0)
(0.993527 -0.00840261 0)
(0.954379 -0.00652716 0)
(0.780488 0.0414039 0)
(0.724897 0.0502478 0)
(0.659926 -0.0321462 0)
(0.948981 -0.00676521 0)
(0.650513 0.0628806 0)
(0.483817 -0.0208309 1.27821e-18)
(-0.0363114 2.86418 5.68938e-19)
(0.0418713 2.90952 0)
(0.0549398 2.88467 0)
(-0.00444749 2.69895 0)
(-0.0131376 2.98516 7.82947e-19)
(-0.0180391 2.89514 0)
(-0.015432 2.98808 -2.43899e-18)
(-0.0132949 2.9252 8.36873e-19)
(-0.294233 1.30009 0)
(-0.308519 1.4947 0)
(-0.137528 1.57103 1.97814e-21)
(-0.0784677 1.39735 0)
(-0.106166 1.29169 0)
(0.937608 -0.00765446 0)
(0.855715 -0.00964326 0)
(0.863721 0.00681399 0)
(0.948911 -0.0080789 0)
(0.883448 -0.0081142 0)
(0.517017 1.13325 -1.45563e-19)
(0.56663 1.18462 0)
(0.368302 0.883769 2.44029e-20)
(0.310413 0.7438 0)
(0.924785 1.07116 -1.87703e-19)
(1.03827 0.874071 3.78481e-19)
(0.373963 1.38126 0)
(0.536752 1.35117 0)
(0.545289 1.3072 0)
(0.107915 0.18069 -2.46781e-19)
(0.426335 0.229531 0)
(0.395011 0.118547 1.75698e-19)
(1.00837 0.928285 0)
(1.07428 0.77596 0)
(1.09998 0.718166 -3.06361e-19)
(1.12654 0.617232 0)
(1.17192 0.40109 5.57738e-20)
(0.957348 -0.00888219 0)
(0.962269 -0.0101011 0)
(0.901339 -0.0080273 0)
(0.98414 -0.00919553 0)
(0.974579 -0.00936475 0)
(0.936996 -0.0064147 0)
(1.00019 0.00232763 0)
(1.00091 0.0014127 0)
(0.999908 0.000845437 0)
(0.0357021 2.05117 3.42547e-19)
(0.12177 1.72705 0)
(0.0182578 2.16643 2.2265e-19)
(0.0514445 1.84504 -3.88157e-19)
(0.115931 1.19831 -3.42154e-19)
(0.0441779 1.08128 0)
(0.137422 1.06553 0)
(0.022205 0.906308 0)
(0.0230485 0.721451 0)
(-0.0129086 2.18617 1.04534e-22)
(0.0354009 1.99502 0)
(-0.016968 2.15281 1.60861e-20)
(0.0320742 2.00252 -9.04893e-21)
(0.0191872 0.863514 0)
(-0.00144821 0.831375 0)
(0.0101746 0.691319 0)
(-0.0122693 0.780012 0)
(-0.0259528 0.639874 0)
(0.933378 0.00817705 0)
(0.842472 -0.0153681 0)
(0.924244 -0.000434693 0)
(0.838432 -0.0115609 0)
(0.813395 0.00326049 0)
(0.903296 0.0188172 0)
(0.881184 0.02266 0)
(0.790168 0.00208193 0)
(0.00565237 3.06475 -7.80607e-21)
(0.0165262 3.05784 0)
(0.0146052 2.96908 0)
(0.00856286 2.87631 0)
(0.92619 3.97195 0)
(1.24104 3.30412 9.58875e-19)
(0.0701357 3.07535 0)
(-0.0283212 2.90632 0)
(-0.365333 1.58361 0)
(-0.375918 2.12345 0)
(-0.362217 1.86834 0)
(-0.21078 2.43042 -8.4271e-20)
(-0.279375 2.36591 0)
(-0.232257 2.32779 0)
(-0.0129993 1.96231 -1.93406e-21)
(-0.0552565 2.03497 -2.15838e-20)
(-0.113352 1.93894 -8.98295e-21)
(-0.0625236 1.91108 0)
(0.538711 0.123153 4.63996e-19)
(0.44418 0.0080286 -4.55212e-19)
(0.261097 1.55855 0)
(0.264165 0.700822 -2.77884e-19)
(0.177695 1.64471 -9.35948e-19)
(0.225062 1.17242 9.38353e-19)
(0.902458 0.00665651 0)
(0.967597 0.0109497 0)
(0.974667 0.0107282 0)
(0.923573 0.00653625 0)
(0.00752489 0.76162 0)
(-0.0115144 0.760767 0)
(-0.0144677 0.617315 0)
(0.298073 0.243006 5.68613e-19)
(0.243036 0.221069 -6.74018e-19)
(0.257069 0.177891 0)
(1.07609 0.0854293 1.81617e-20)
(1.05793 0.0397726 0)
(0.992368 0.0389822 0)
(0.888874 -0.00570586 0)
(0.562151 0.0955636 0)
(0.591772 0.0723759 -2.0491e-18)
(0.460336 -0.00270258 7.7277e-19)
(0.0091658 2.98106 6.31072e-19)
(-0.0330023 2.86587 4.57912e-20)
(0.00369119 3.05025 -1.66068e-20)
(0.0201056 3.04338 5.92141e-19)
(-0.0149753 2.99656 2.75663e-20)
(-0.0129856 2.94946 -1.11033e-22)
(-0.0172853 3.01195 -5.12889e-19)
(0.0148975 3.02376 3.71478e-19)
(0.00739889 3.0369 -5.86847e-19)
(0.931898 -0.00247822 0)
(0.937974 -0.00380722 0)
(0.843281 -0.00868233 0)
(0.956891 0.0115733 0)
(0.943327 0.0127639 0)
(0.882006 0.00633595 0)
(0.919009 0.0154827 0)
(0.927025 0.0141922 0)
(0.839436 0.00485806 0)
(0.720703 1.41196 1.35175e-19)
(0.754303 1.52116 0)
(0.196504 0.344164 5.78536e-20)
(0.21059 0.648336 4.65815e-19)
(0.256538 0.717853 -2.68933e-19)
(0.270342 0.548899 5.29541e-19)
(0.320137 0.761903 1.31223e-18)
(0.125312 0.212001 3.17108e-19)
(0.47075 0.198892 -6.4879e-19)
(0.447644 0.214234 1.69885e-19)
(0.404886 0.10229 3.29286e-19)
(1.16126 0.458858 1.15398e-19)
(1.17253 0.253302 1.15037e-19)
(0.00590776 2.20706 1.74209e-19)
(0.0510401 1.91465 0)
(0.956616 0.0272783 0)
(0.934661 0.0116795 0)
(0.855378 -0.0178189 0)
(0.0113481 3.07463 0)
(0.0198973 2.94413 1.06797e-18)
(0.0164449 2.95648 0)
(0.00617923 2.85063 -1.05959e-18)
(0.00619437 3.0913 2.57917e-19)
(0.00708732 3.08223 0)
(0.787394 1.82407 -1.86566e-19)
(1.24877 2.50273 4.92025e-19)
(0.769556 1.96394 -1.3231e-18)
(0.0203834 2.98258 -5.26175e-19)
(0.0358626 3.00285 0)
(-0.0335132 2.87951 0)
(-0.011817 2.12912 -8.14989e-22)
(-0.0295672 2.09115 3.18757e-21)
(0.0120343 1.99127 -7.02892e-22)
(0.275205 1.36558 9.06254e-19)
(0.217505 0.483047 -6.22394e-19)
(0.0622568 1.97316 6.70893e-19)
(0.137684 1.86367 -8.05216e-19)
(0.177923 1.46654 8.78759e-20)
(0.00317689 3.11906 -1.58342e-18)
(0.0121309 3.11925 1.7314e-18)
(-0.00889483 2.9811 7.09811e-19)
(-0.00415291 2.97762 -6.59208e-19)
(-0.021262 2.88109 -7.22931e-19)
(0.00853504 3.10022 -1.91268e-18)
(0.00217364 3.10479 1.90461e-18)
(0.264594 0.671095 0)
(0.22281 0.659765 -9.56856e-19)
(0.101585 0.221334 4.24858e-19)
(0.339212 0.884838 9.48055e-19)
(0.180002 0.253246 -1.45964e-18)
(1.16248 0.173228 3.09778e-20)
(1.17331 0.307697 0)
(1.15009 0.120898 2.42646e-20)
(-0.00667184 2.20602 -4.52687e-22)
(-0.00191753 2.20959 0)
(0.0371577 1.96046 0)
(0.336934 1.26811 -3.27772e-19)
(0.360548 1.09351 -7.03814e-19)
(0.19255 0.346979 1.24177e-18)
(1.00587 -0.010877 0)
(1.00766 -0.00767003 4.09161e-19)
(-0.275773 1.30657 0)
(-0.221329 1.10744 0)
(1.00221 0.00346874 1.77332e-21)
(1.00367 0.00943079 8.36172e-19)
(-0.21618 2.45596 1.05609e-19)
(-0.223964 2.47629 0)
(0.0361855 3.17958 3.20678e-19)
(0.396241 3.49311 0)
(1.13231 0.652755 -2.75252e-20)
(1.013 0.0129864 -2.1551e-21)
(1.02117 -0.0105159 0)
(1.0017 0.000129215 6.8452e-23)
(0.0978816 1.35387 0)
(0.144234 2.58196 0)
(0.0359483 1.29146 0)
(0.00238569 2.62224 -2.74902e-20)
(-0.0281713 2.57572 -3.21126e-20)
(1.00446 0.0277672 2.59101e-21)
(1.06157 0.002387 0)
(1.09048 0.0155321 0)
(-0.343332 2.11606 0)
(-0.17768 2.5504 0)
(-0.030742 1.07884 0)
(0.279837 1.46327 -2.50281e-19)
(1.01124 -0.00969421 0)
(1.00938 -0.0149508 0)
(1.00237 0.000711809 5.22094e-19)
(1.00547 -0.00485105 -6.14476e-19)
(1.00117 -0.00103399 0)
(-0.336923 1.83369 0)
(-0.297873 1.34694 0)
(-0.341063 1.61632 0)
(-0.0355461 1.03949 0)
(-0.0959112 1.00939 0)
(-0.0432905 0.93403 0)
(1.03416 -0.00681198 0)
(1.02092 0.015682 -9.5892e-22)
(0.793566 1.25714 3.34801e-19)
(1.00232 0.000294164 -5.2181e-19)
(1.00406 0.00521667 6.10284e-19)
(1.00117 0.00204679 0)
(1.01284 0.0102659 5.16539e-19)
(1.00808 0.00828394 -6.28222e-19)
(1.00861 0.0146967 0)
(-0.218179 2.57593 0)
(-0.235759 2.54106 -1.65856e-19)
(-0.25099 2.51009 1.18271e-19)
(1.20766 0.261065 3.99053e-19)
(1.14551 0.0796391 0)
(0.0455546 3.07755 -8.0079e-19)
(0.0658957 2.85318 -5.95579e-20)
(0.142512 3.19406 1.23307e-18)
(0.13715 3.22293 -1.3948e-19)
(0.13581 3.23575 0)
(0.0202398 3.13792 1.99792e-19)
(0.0771296 3.16064 7.87964e-19)
(0.0696498 3.18709 -3.78244e-19)
(0.0235194 3.12908 0)
(0.660346 0.301965 0)
(0.575882 0.364726 0)
(1.10411 0.683261 3.76947e-20)
(1.1011 0.814818 3.31718e-20)
(1.16148 0.570286 0)
(1.19123 0.512322 0)
(1.01621 0.0132133 -9.61692e-19)
(1.01499 0.0142147 -1.54641e-21)
(1.02507 -0.0100058 0)
(1.02312 -0.0119762 0)
(1.00643 0.00262121 0)
(1.01037 0.00367492 0)
(1.00449 0.00189755 0)
(1.00985 0.00601205 0)
(1.00793 0.00598555 0)
(1.00447 0.00463859 0)
(0.0897088 1.34918 0)
(0.081948 1.31833 0)
(0.113177 1.38274 0)
(0.127329 1.40267 0)
(0.144975 2.60525 0)
(0.186235 2.66694 -3.60117e-19)
(0.0994046 2.66188 0)
(0.0865687 2.66362 1.3223e-19)
(0.0413273 2.67769 -5.85032e-20)
(0.0475523 1.27906 0)
(0.059046 1.19618 0)
(0.0180991 1.31878 0)
(0.031171 1.26662 0)
(-0.0161521 1.98401 6.57819e-20)
(-0.0348864 2.6033 -7.46944e-20)
(-0.0125761 2.66537 -7.16427e-20)
(-0.0258004 2.67377 0)
(-0.0432608 2.6076 9.83037e-20)
(-0.0376387 2.602 6.71532e-20)
(-0.0144121 1.98431 -5.07291e-20)
(-0.031423 2.4117 1.00163e-19)
(-0.0236826 2.42978 8.12788e-20)
(1.01345 0.0346196 9.7307e-19)
(1.00851 0.0172406 3.03011e-21)
(1.00542 0.0415806 -9.80102e-19)
(0.98478 0.0231747 1.24839e-18)
(1.06236 0.00620495 0)
(1.04767 -0.00919556 0)
(1.08885 0.0268819 0)
(1.07094 0.0090663 0)
(1.06805 -0.00165368 0)
(1.12855 0.0713971 0)
(1.10225 0.0350236 0)
(1.10381 0.024252 0)
(-0.235222 2.49816 2.01197e-20)
(-0.322602 2.36726 0)
(-0.289942 2.40009 0)
(-0.149743 2.59961 -7.47787e-20)
(-0.0845329 2.55986 5.17694e-22)
(-0.154418 1.97141 -3.47666e-19)
(-0.235234 1.84163 3.51947e-19)
(-0.0295841 1.34377 0)
(-0.158326 1.36516 0)
(-0.234046 1.38943 0)
(0.025666 1.07569 0)
(-0.0225614 0.961766 0)
(0.373525 1.47692 4.48946e-19)
(0.408871 1.486 2.01897e-19)
(0.59434 2.45193 -2.09664e-19)
(0.405377 2.54508 6.05715e-19)
(0.354987 2.07997 3.05465e-20)
(1.02082 -0.00828325 0)
(1.01539 -0.00985346 0)
(1.01483 -0.0156528 0)
(1.00745 -0.00129307 0)
(1.00496 -0.00099603 0)
(1.00775 -0.00482195 0)
(1.00922 -0.00385908 0)
(1.0141 -0.00456348 0)
(1.02162 0.0158317 9.36773e-19)
(1.01828 0.0157767 -1.20306e-18)
(1.02211 0.0176726 -9.42182e-19)
(1.01972 0.0163829 1.18146e-18)
(0.761821 1.30622 0)
(0.695335 1.36096 3.57392e-19)
(0.870288 1.20334 1.70514e-19)
(0.913669 1.15858 -2.26952e-19)
(1.15922 2.60971 1.27025e-20)
(0.818863 0.0955249 5.0447e-19)
(1.14524 0.0983205 0)
(1.18767 0.186273 -3.18601e-19)
(1.17272 0.153402 -1.33418e-20)
(1.00568 0.132656 0)
(0.139084 2.96292 4.10387e-19)
(0.115857 2.86873 -1.01979e-18)
(0.0276144 2.3697 6.98464e-19)
(0.0933511 0.0121112 -3.07909e-19)
(0.340939 3.422 -2.8622e-19)
(0.194996 3.31457 0)
(0.237767 3.35682 3.72752e-19)
(0.247209 3.03588 -1.46461e-18)
(0.342086 3.19474 0)
(0.00772112 3.12066 4.04125e-20)
(0.0176516 3.12966 -4.83866e-19)
(0.0160484 3.12565 7.12184e-19)
(0.036421 3.13964 0)
(0.0347232 3.15096 0)
(1.2171 2.60948 0)
(0.533968 0.842791 -4.36322e-19)
(1.03279 0.986647 -5.82559e-20)
(0.971436 1.05665 0)
(0.816486 0.958168 -6.06003e-20)
(1.05602 0.874637 2.96625e-20)
(0.368414 0.415006 -8.04002e-19)
(0.701764 0.326297 -2.26101e-20)
(0.685786 0.253935 3.68227e-19)
(0.591747 0.395901 2.74768e-20)
(0.511121 0.371242 -1.10969e-18)
(0.672934 0.340614 0)
(0.699244 0.427609 6.19666e-19)
(0.706536 0.426057 0)
(0.629581 0.378736 0)
(0.608362 0.305721 0)
(0.784067 0.616893 3.34472e-19)
(1.20413 0.28018 -5.65368e-20)
(1.20009 0.415462 0)
(1.21248 0.364427 0)
(0.763293 0.196002 5.48104e-19)
(0.829572 0.538563 -3.32911e-19)
(0.735362 0.515402 -5.77652e-19)
(0.929418 0.419725 -6.20935e-19)
(1.01992 0.0145486 6.45629e-19)
(1.01798 0.0140955 -6.51181e-19)
(1.01595 0.0156838 0)
(1.03556 -0.00635657 0)
(1.02939 -0.0089016 -6.05213e-19)
(1.02721 -0.0124111 5.99142e-19)
(1.02515 0.0095381 0)
(1.02373 0.0130293 0)
(1.01138 0.00399636 0)
(1.01431 0.00883699 0)
(1.01507 0.00377615 0)
(1.01418 0.00268908 0)
(0.0681079 1.33342 0)
(0.068562 1.29474 0)
(0.146576 1.34163 1.05355e-19)
(0.259985 1.46097 1.37271e-19)
(0.150936 1.43284 2.88236e-19)
(0.181726 1.44103 -1.51064e-19)
(0.164638 1.37026 0)
(0.125371 1.59028 4.08855e-20)
(0.10846 1.55848 0)
(0.352318 2.035 -4.43942e-20)
(0.351593 2.36708 4.92783e-19)
(0.183798 1.44009 -3.56708e-20)
(0.261186 1.36457 7.82499e-20)
(0.191766 1.3523 6.3142e-20)
(0.268869 1.30507 3.97505e-20)
(0.236613 1.57371 1.30096e-20)
(0.260968 1.6154 3.94613e-21)
(0.0251411 2.27555 9.2822e-21)
(0.0382789 2.67112 0)
(0.0626909 2.41228 3.70974e-20)
(0.0568478 2.43318 0)
(0.0672742 2.676 -1.46912e-19)
(0.0502124 2.69979 0)
(0.030226 1.42545 1.17432e-19)
(0.0176736 1.46525 0)
(0.0227212 1.38994 0)
(0.0348833 1.39568 -1.30538e-19)
(-0.00176793 2.6504 -1.93656e-20)
(0.0259865 2.69727 5.45732e-20)
(0.0109375 2.71842 3.6096e-22)
(0.0312725 1.87471 -7.73555e-20)
(-0.00485528 1.65375 2.88078e-20)
(0.0716671 1.19256 0)
(0.0483619 1.07858 0)
(0.0313134 1.57627 -1.47455e-19)
(0.0197033 1.4473 -1.45887e-19)
(0.0331504 1.50919 1.86555e-19)
(0.0305324 1.60084 0)
(-0.153312 2.46333 4.94225e-19)
(-0.163558 2.6014 -2.12867e-19)
(-0.0800468 2.54265 3.76767e-20)
(-0.00484182 1.891 9.30607e-20)
(-0.0750448 2.51343 3.38157e-20)
(-0.0256143 2.45092 -8.75239e-20)
(1.02053 0.0202726 -6.40478e-19)
(1.01721 0.0253422 6.4293e-19)
(1.015 0.0163916 0)
(1.01782 0.0640177 8.81029e-19)
(0.996119 0.055232 -1.02199e-18)
(0.958122 0.0420273 1.14857e-18)
(1.01762 0.0972373 -1.20283e-19)
(1.04178 -0.00641405 0)
(1.0497 -0.00226247 5.72368e-19)
(1.03804 -0.0105089 -5.74053e-19)
(1.06865 0.0359778 -3.37218e-20)
(1.06302 0.0192641 2.92355e-19)
(1.06105 0.046859 0)
(1.05524 0.0408567 -1.05276e-19)
(1.03258 0.037935 0)
(1.02653 0.0346128 0)
(1.02763 0.0123256 0)
(1.02437 0.0152356 0)
(1.03864 0.0286649 2.17504e-19)
(1.03824 0.0245517 -4.82498e-19)
(1.0507 0.0298647 -2.2986e-19)
(1.04747 0.029687 -2.53448e-19)
(1.07008 0.0526723 4.91108e-19)
(1.08946 0.0415783 0)
(1.09617 0.0871792 0)
(-0.164106 2.47431 2.5167e-19)
(-0.251433 2.35321 2.76111e-20)
(-0.24048 2.37179 0)
(-0.234097 2.5303 -2.34224e-19)
(-0.247835 2.50982 -4.55594e-20)
(-0.228376 2.5321 4.33132e-20)
(-0.0531076 2.60815 -5.45605e-20)
(-0.0950241 2.56554 4.831e-21)
(-0.0630412 2.53916 -2.50935e-20)
(-0.0817287 2.59179 3.18482e-20)
(-0.0466154 2.59058 2.31657e-21)
(0.0260591 1.6151 6.46619e-21)
(-0.0279527 1.97451 -3.52501e-19)
(0.363868 1.41509 -2.08547e-19)
(0.361711 1.35535 -1.12604e-19)
(0.642808 1.40655 -3.45594e-19)
(0.50961 1.47202 -1.95413e-19)
(0.561063 1.44554 0)
(0.590264 2.4267 1.81978e-19)
(0.65742 2.41733 2.99629e-19)
(0.41094 2.52141 8.11963e-20)
(0.40527 2.5564 -4.67242e-19)
(0.51548 2.5072 4.88771e-19)
(0.548845 2.46534 0)
(0.488183 2.51724 -4.91763e-19)
(0.247235 2.59374 9.78335e-19)
(0.353073 2.57028 -8.1604e-20)
(0.284342 2.65431 -1.36908e-18)
(0.937072 2.38404 5.66297e-19)
(0.831498 2.3879 0)
(1.01106 0.000279506 2.11073e-20)
(1.01534 -0.00556219 -1.71835e-20)
(1.01749 -0.00368177 -3.1225e-19)
(1.01488 -0.00115652 3.14466e-19)
(1.01235 0.000804339 0)
(0.630216 1.27323 0)
(0.651959 1.16841 0)
(0.75217 1.07567 0)
(0.6433 1.1359 0)
(1.18713 2.62501 5.86651e-20)
(1.07759 2.36954 0)
(0.843755 2.19275 1.98949e-21)
(0.828137 2.46105 0)
(0.923124 2.54866 -2.71015e-19)
(0.9599 2.50288 0)
(0.830473 0.146178 0)
(0.801218 0.131668 1.39752e-19)
(0.924916 0.122957 7.87438e-19)
(0.849152 0.119661 -3.00653e-19)
(0.829538 0.0611857 -9.1275e-19)
(1.06401 0.222392 -7.09772e-19)
(0.983637 0.27683 -1.5636e-20)
(0.911685 0.272827 7.32657e-19)
(0.997707 0.204997 5.98113e-19)
(0.947792 0.163633 -1.03735e-18)
(0.917625 0.169909 1.30646e-19)
(0.945417 0.233073 -2.75569e-19)
(0.924284 0.193618 0)
(0.99383 0.165309 -5.0923e-19)
(1.04073 0.17108 0)
(1.03679 0.197585 0)
(1.09435 0.108863 2.27059e-19)
(1.06778 0.162065 -1.35686e-20)
(1.05809 0.226204 -3.62095e-19)
(1.09002 0.194819 0)
(1.02327 0.0422637 4.95412e-19)
(1.04299 0.0514749 6.1175e-19)
(1.03354 0.0394908 -4.91761e-19)
(1.04436 0.0566112 -4.10158e-19)
(1.01877 0.0653196 -6.23566e-19)
(0.991418 0.137347 0)
(1.00296 0.0921463 0)
(0.973633 0.0579872 -4.099e-19)
(0.92571 0.0744683 1.63133e-19)
(1.04173 0.0924073 5.69252e-19)
(1.0688 0.109737 -6.59482e-19)
(1.07322 0.14107 5.91491e-19)
(1.03438 0.130117 0)
(1.07448 0.0955292 0)
(1.06027 0.0776102 -2.69046e-19)
(1.04957 0.0859711 -4.64815e-19)
(0.58641 1.08651 6.38362e-20)
(0.616547 1.41378 3.53737e-20)
(1.15847 2.74144 -1.20549e-19)
(1.22453 3.08264 -2.23047e-20)
(1.25045 2.72382 9.71401e-20)
(1.28053 2.70763 -1.33089e-19)
(1.20897 2.34815 -9.89089e-21)
(1.21185 2.98654 1.32312e-21)
(1.23134 2.95164 8.72666e-20)
(1.2155 3.23646 -1.85215e-19)
(1.37665 2.96836 2.56179e-19)
(1.36737 2.88673 0)
(0.540453 0.849619 -3.78442e-20)
(0.139976 1.26227 5.074e-19)
(0.52682 0.470847 5.22908e-19)
(0.361203 0.222875 5.73218e-19)
(0.530594 0.401283 6.24954e-19)
(0.538645 0.489577 -1.01906e-18)
(0.541471 0.49542 8.33759e-19)
(0.495702 0.420935 -3.15521e-19)
(0.424933 0.359797 7.20401e-19)
(0.766282 0.252873 9.51823e-19)
(0.725909 0.290799 0)
(0.722177 0.225414 9.94444e-21)
(0.71481 0.514261 3.2455e-19)
(0.686662 0.487388 -1.18583e-18)
(0.607266 0.488311 1.65053e-20)
(0.623043 0.471531 0)
(0.666977 0.739256 3.20735e-19)
(0.812947 0.769194 2.9405e-19)
(0.742336 0.853124 -3.46662e-19)
(0.855132 0.800854 -1.16642e-19)
(0.888359 0.84141 -2.32233e-20)
(0.896676 0.842935 2.37703e-20)
(0.823424 0.643392 -5.57562e-19)
(0.900246 0.695907 1.08365e-19)
(0.95846 0.709703 0)
(0.947441 0.685991 -1.48263e-19)
(1.00923 0.317979 1.7266e-19)
(1.11742 0.289635 2.11761e-19)
(1.04844 0.260384 2.8999e-19)
(0.990046 0.351213 -3.52907e-19)
(1.03125 0.417811 0)
(1.08523 0.40522 0)
(0.89966 0.349052 4.62e-21)
(0.838302 0.283076 0)
(0.860826 0.274864 3.5054e-19)
(0.89619 0.279132 -6.27944e-21)
(0.920666 0.422971 1.72563e-18)
(0.877151 0.484629 4.43848e-19)
(0.88273 0.449399 -4.86189e-19)
(0.813337 0.437273 -5.20906e-19)
(0.795234 0.431391 3.19846e-19)
(0.767478 0.417286 -3.1433e-19)
(1.02704 -0.000730216 5.18613e-19)
(1.02005 -0.000366746 0)
(1.01858 0.000542108 3.38609e-19)
(1.02127 -0.00208099 -3.39624e-21)
(1.02246 0.00401687 3.72454e-19)
(1.02051 0.0108101 -7.80075e-19)
(1.02153 0.0102307 0)
(1.02084 0.0105196 -1.62864e-19)
(1.0161 0.00738382 4.08557e-19)
(1.01679 0.0101782 -2.03838e-19)
(1.01748 0.0095519 1.50154e-19)
(0.0407701 1.31957 0)
(0.0334366 1.36163 0)
(0.0521859 1.31663 0)
(0.0352381 1.27776 0)
(0.0761753 1.36981 -2.43446e-19)
(0.0816557 1.34112 8.14961e-20)
(0.103258 1.49161 4.0969e-20)
(0.0881685 1.33691 -5.37578e-20)
(0.029459 1.45237 1.32351e-19)
(0.0349928 1.44337 -1.01786e-19)
(0.0670627 1.35116 -6.12397e-21)
(0.0590538 1.35362 -2.00306e-19)
(0.050379 1.3316 2.2401e-20)
(0.0359989 1.35885 -1.78578e-20)
(0.105156 2.38743 -3.96228e-20)
(0.0932695 2.42944 0)
(0.163896 2.06469 6.211e-20)
(0.110846 1.70932 -5.63245e-21)
(0.227155 2.05965 -4.94078e-20)
(0.211036 2.45595 0)
(0.268194 2.40861 -4.30201e-19)
(0.304417 2.40735 3.06325e-19)
(0.22866 2.01813 -1.8342e-19)
(0.149898 2.18465 1.06649e-19)
(0.145614 2.30662 0)
(0.0216689 1.8864 1.40748e-19)
(-0.010653 2.40413 8.70562e-20)
(-0.00444039 2.15775 0)
(0.00519504 2.46418 -1.27843e-20)
(0.0199186 2.31396 -5.70305e-20)
(0.061998 1.42699 -2.4247e-20)
(0.111657 1.37828 4.27687e-19)
(0.0996671 1.42683 -1.42996e-19)
(0.0510992 1.43136 -1.18035e-19)
(0.0475926 1.44123 0)
(0.0953977 1.40398 0)
(0.00946254 1.1001 -2.29043e-19)
(0.107314 1.35308 6.88718e-20)
(0.121886 1.36089 0)
(0.0545091 1.11279 -1.43118e-19)
(0.0380072 0.948044 3.11523e-19)
(1.04035 0.0106699 0)
(1.04548 0.00713173 -5.37485e-20)
(1.03837 0.0205266 -3.88051e-19)
(1.04757 0.0190852 0)
(1.05206 0.0187123 0)
(1.03592 0.010466 -6.41583e-21)
(1.03141 0.0103276 6.24288e-19)
(1.0316 0.0152472 7.59329e-19)
(1.02606 0.0191014 0)
(1.02351 0.0198167 0)
(1.03481 0.0234055 3.87676e-19)
(1.02609 0.0247699 0)
(1.02534 0.0243703 0)
(0.0114919 2.15066 0)
(0.00289462 1.95858 2.07603e-20)
(-0.00760819 2.05474 -1.22183e-19)
(0.0812305 1.35501 0)
(0.111673 1.68848 -1.28419e-19)
(0.109641 1.49262 1.2165e-19)
(0.0709413 1.3458 0)
(0.395271 1.69019 0)
(0.362178 1.28219 1.74884e-19)
(0.305705 1.33713 0)
(0.417632 1.28181 -1.70213e-19)
(0.461588 1.44494 0)
(0.44297 1.38934 1.45318e-19)
(1.03299 2.69437 -1.18602e-20)
(0.959915 2.41511 -7.53829e-19)
(0.907145 2.18623 8.2371e-19)
(0.844258 2.38014 2.01617e-19)
(0.845559 2.50841 0)
(0.915943 2.5023 0)
(0.920382 2.37794 0)
(0.897954 2.36318 -7.80104e-19)
(0.692994 2.48063 -2.63319e-19)
(0.801997 2.47222 -6.83859e-20)
(0.813786 2.44327 5.23009e-20)
(0.691898 2.39395 0)
(0.7958 2.39134 0)
(0.754781 2.40282 -3.19814e-19)
(0.769869 2.49941 0)
(0.614141 1.09043 0)
(0.486932 0.931848 -3.41402e-19)
(0.555756 0.965173 -2.20818e-20)
(0.527753 1.06293 0)
(0.526589 1.01182 5.13329e-19)
(0.766246 0.877689 -8.57835e-20)
(0.777694 1.01 0)
(0.7505 0.965244 1.11036e-19)
(0.64096 1.03152 0)
(0.644849 0.94298 0)
(1.16582 2.76291 -1.38394e-19)
(1.14385 2.8265 -2.63554e-20)
(0.935245 2.34835 -2.3032e-20)
(0.902382 2.32763 -3.97476e-20)
(1.13063 2.73721 0)
(1.0835 2.70791 5.40672e-20)
(1.09002 2.49039 -2.41276e-19)
(0.985636 2.23589 -3.07932e-20)
(0.505371 1.3681 0)
(0.518961 1.08189 -5.63596e-20)
(0.558921 1.15677 0)
(0.860068 0.213227 0)
(0.807243 0.169258 0)
(0.764666 0.14834 0)
(0.854499 0.222626 -5.51643e-19)
(0.784164 0.213595 3.27775e-19)
(0.935804 0.0608162 -3.36413e-19)
(0.950288 0.106071 0)
(0.926672 0.111331 1.46261e-19)
(0.872945 0.088425 5.88384e-19)
(0.854559 0.0493839 -3.66821e-19)
(1.16263 3.36209 -8.08382e-19)
(1.21033 3.28128 0)
(1.16111 3.39029 -1.6387e-18)
(0.648337 3.55116 1.39732e-18)
(0.872975 3.11853 1.7482e-19)
(0.514108 0.855876 4.79544e-19)
(0.433303 0.851233 0)
(0.339599 0.503925 -1.29746e-19)
(0.441551 0.687934 -7.07489e-19)
(0.529289 0.476722 -1.77987e-19)
(0.504513 0.526928 2.02832e-19)
(0.65041 0.542579 4.39757e-19)
(0.67862 0.560892 0)
(0.631879 0.62473 0)
(0.589619 0.562243 0)
(0.956373 0.595807 5.34242e-20)
(0.880475 0.534552 -4.31441e-19)
(0.903113 0.566292 3.1107e-19)
(0.93848 0.50186 -3.31986e-19)
(1.04256 0.475853 0)
(1.05177 0.565062 -7.39182e-20)
(0.837537 0.387023 -7.2575e-19)
(0.841755 0.37195 1.14334e-18)
(0.790566 0.38568 5.66777e-19)
(0.78455 0.356443 -5.93211e-19)
(0.837344 0.31059 -4.5686e-19)
(0.792371 0.308948 5.61729e-19)
(1.02668 0.00555344 -4.01517e-19)
(1.0263 0.00586185 8.22326e-19)
(1.02936 -0.000402616 5.01048e-19)
(1.03313 0.000578823 -6.03417e-19)
(1.03295 0.00763209 0)
(1.02998 0.00857929 -9.75962e-19)
(0.0540935 1.64412 -3.91401e-21)
(0.0374194 1.57164 0)
(0.0778552 1.69297 -7.28734e-20)
(0.082377 1.67778 7.21901e-20)
(0.0824992 1.52161 -7.68742e-20)
(0.0892676 1.50505 0)
(0.0819359 1.76966 0)
(0.071645 1.60549 5.0134e-20)
(0.100257 1.48863 -4.50114e-20)
(0.0921553 1.66486 1.73408e-20)
(0.035545 2.02103 9.14411e-20)
(0.0300699 2.0124 1.26062e-19)
(0.499828 1.37899 -4.00016e-20)
(0.492868 1.38484 -4.23582e-20)
(0.439521 1.27988 1.19451e-19)
(0.435414 1.29511 -3.38481e-21)
(0.624307 1.28751 0)
(0.538649 1.37512 2.40082e-19)
(0.556646 1.38382 -2.3381e-19)
(0.445996 1.26934 -1.15276e-19)
(0.503833 1.22241 0)
(0.560173 1.19329 0)
(0.659452 2.44004 3.86907e-19)
(0.6698 2.47309 1.01421e-18)
(0.717368 2.48812 -6.97957e-19)
(0.619763 2.46903 -1.77402e-19)
(0.563349 2.55902 2.20685e-19)
(0.512802 2.53154 -5.96089e-19)
(0.973733 2.38042 -4.57836e-19)
(1.01238 2.396 0)
(0.919607 2.16593 -5.39901e-19)
(1.05279 2.68812 0)
(1.05505 2.6751 0)
(0.613195 2.27814 -1.08225e-21)
(1.0431 3.16486 2.49472e-19)
(0.914209 3.03522 -1.68217e-19)
(0.283769 0.921615 0)
(0.322663 0.782652 -2.64288e-19)
(0.47964 0.736794 -1.02533e-18)
(0.389989 2.02667 0)
(0.468997 2.78755 -1.21714e-19)
(0.424242 2.5518 0)
(0.677137 0.687744 -6.77528e-19)
(0.75705 0.68025 9.17994e-19)
(0.775884 0.624825 5.91273e-19)
(0.657366 0.650008 8.99354e-20)
(0.712884 0.600614 -3.72657e-19)
(1.00555 2.76851 -1.89692e-19)
(1.0426 2.82414 -1.58196e-20)
(0.640127 2.15291 4.75486e-19)
(0.598404 1.72121 -3.49554e-19)
(0.702047 1.91124 -2.38527e-19)
(0.991717 2.45166 -9.99294e-20)
(0.996319 2.44403 1.47381e-19)
(0.661319 1.85003 1.73262e-20)
(0.454779 1.34117 3.45665e-19)
)
;

boundaryField
{
    wall-4
    {
        type            noSlip;
    }
    velocity-inlet-5
    {
        type            fixedValue;
        value           uniform (1 0 0);
    }
    velocity-inlet-6
    {
        type            fixedValue;
        value           uniform (0 3 0);
    }
    pressure-outlet-7
    {
        type            zeroGradient;
    }
    wall-8
    {
        type            noSlip;
    }
    frontAndBackPlanes
    {
        type            empty;
    }
}


// ************************************************************************* //
