/*--------------------------------*- C++ -*----------------------------------*\
| =========                 |                                                 |
| \\      /  F ield         | OpenFOAM: The Open Source CFD Toolbox           |
|  \\    /   O peration     | Version:  2412                                  |
|   \\  /    A nd           | Website:  www.openfoam.com                      |
|    \\/     M anipulation  |                                                 |
\*---------------------------------------------------------------------------*/
FoamFile
{
    version     2.0;
    format      ascii;
    arch        "LSB;label=32;scalar=64";
    class       surfaceScalarField;
    location    "7";
    object      phi;
}
// * * * * * * * * * * * * * * * * * * * * * * * * * * * * * * * * * * * * * //

dimensions      [0 3 -1 0 0 0 0];

oriented        oriented;

internalField   nonuniform List<scalar> 
49
(
-2.76045
2.76045
-2.08254
0.0155773
-2.08254
0.0968161
2.10378
0.656671
2.10378
-2.09095
0.0084097
-2.09095
-2.06966
-0.0212905
2.06966
0.034122
2.94526
-2.96655
5.93117
-2.8879
2.73269
0.212577
2.7411
0.678926
2.33495
-3.01387
-2.28763
-2.25351
-3.29874
4.31411
5.20287
-2.86792
5.41545
-3.36175
2.0537
0.97866
3.63205
-0.988331
-1.98445
-0.841446
2.89514
1.89965
1.91523
0.910692
2.21843
1.41362
3.19709
0.18322
-2.07029
)
;

boundaryField
{
    wall-4
    {
        type            calculated;
        value           uniform 0;
    }
    velocity-inlet-5
    {
        type            calculated;
        value           nonuniform List<scalar> 0();
    }
    velocity-inlet-6
    {
        type            calculated;
        value           nonuniform List<scalar> 0();
    }
    pressure-outlet-7
    {
        type            calculated;
        value           nonuniform List<scalar> 0();
    }
    wall-8
    {
        type            calculated;
        value           nonuniform List<scalar> 0();
    }
    frontAndBackPlanes
    {
        type            empty;
    }
    procBoundary10to8
    {
        type            processor;
        value           nonuniform List<scalar> 4(2.06696 2.82592 3.32578 2.97278);
    }
    procBoundary10to9
    {
        type            processor;
        value           nonuniform List<scalar> 3(-1.01537 0.06301 3.06324);
    }
    procBoundary10to11
    {
        type            processor;
        value           nonuniform List<scalar> 4(-2.85726 -3.04327 -3.86656 -3.53523);
    }
}


// ************************************************************************* //
