/*--------------------------------*- C++ -*----------------------------------*\
| =========                 |                                                 |
| \\      /  F ield         | OpenFOAM: The Open Source CFD Toolbox           |
|  \\    /   O peration     | Version:  2412                                  |
|   \\  /    A nd           | Website:  www.openfoam.com                      |
|    \\/     M anipulation  |                                                 |
\*---------------------------------------------------------------------------*/
FoamFile
{
    version     2.0;
    format      ascii;
    arch        "LSB;label=32;scalar=64";
    class       volScalarField;
    location    "9";
    object      p;
}
// * * * * * * * * * * * * * * * * * * * * * * * * * * * * * * * * * * * * * //

dimensions      [0 2 -2 0 0 0 0];

internalField   nonuniform List<scalar> 
918
(
0.234618
0.937043
0.0056296
0.232625
0.00136065
0.904527
-0.812074
0.42885
0.213721
-0.129844
0.0240738
0.203142
0.765053
0.532107
-1.41005
0.0182689
0.375739
-0.649478
0.209521
0.00870479
0.513452
0.221409
0.224638
0.215724
0.269667
0.529433
0.645136
-0.00299283
-0.00302816
-0.00138874
0.0020421
-0.000232019
0.0094215
0.788026
0.839306
0.861914
0.183465
0.0860221
-0.657676
-0.749716
-0.691942
-0.824344
0.413653
0.421092
-0.486698
0.427665
0.439859
0.205125
0.213035
0.213896
0.216386
0.214159
0.216113
0.294608
-0.131298
-0.191315
-0.0777037
-0.0540031
0.0904305
0.0261029
0.0223948
0.025494
0.0281951
0.145832
0.200884
0.20123
0.206499
0.216963
0.876615
0.848207
0.874358
0.789154
0.805346
0.742876
0.715308
0.551725
0.572848
0.518493
0.509255
-1.83689
-2.7822
-0.822388
-0.573241
0.000540711
0.0243501
0.0329453
0.355699
0.362727
0.369949
0.387165
0.771031
-0.574819
-0.754694
0.210162
0.206828
0.220126
0.220614
0.216127
0.215646
0.0166109
0.0206921
-0.0025478
0.007185
0.00540837
0.483402
0.484195
0.21581
0.211633
0.225793
0.247971
0.232965
-0.0115879
0.281511
0.3134
0.324062
0.507404
0.50621
0.512796
0.618539
0.581478
0.682054
0.705277
0.00502787
0.000472818
0.0185678
0.0119093
0.0149585
0.182952
0.17762
0.197691
0.18791
0.189699
0.0576466
-0.0770914
0.121249
0.0508675
-0.574642
-0.653308
-0.631444
-0.677083
-0.803277
0.368076
0.402697
0.408846
-0.48638
-0.403574
-0.561209
-0.340801
-0.418424
0.190735
0.19842
0.194685
0.21004
0.207931
0.208128
0.217167
0.214153
0.215701
0.328571
0.398916
0.256334
0.23084
-0.386422
-0.233927
-0.405308
-0.0250403
-0.0201451
0.102726
0.112601
0.0810575
0.0730777
-0.00509145
0.0143135
0.00333279
0.0285599
0.0319075
0.136064
0.126896
0.154715
0.159933
0.194406
0.193115
0.197834
0.193503
0.665329
0.687863
0.695787
0.669578
-3.76354
-6.54673
-0.247598
-0.103781
0.00327441
0.00249191
0.00166647
0.00328462
0.00347691
0.00243311
0.0468071
0.0452085
0.0369262
0.041872
0.342054
0.348631
0.768238
0.833599
0.691088
0.678888
0.199391
0.202389
0.205631
0.200943
0.027169
0.0232936
0.0246384
0.440213
0.462038
0.459552
-0.0510147
-0.140192
0.0357126
0.0597075
0.331883
0.314114
0.33323
0.387932
0.426828
0.713305
0.73198
0.729932
0.738956
0.782696
0.798957
0.764717
0.164718
0.172027
0.169214
0.197646
0.19789
0.195062
0.192101
0.193533
0.19286
-0.229993
-0.639089
-0.252977
-0.26715
-0.0401817
-0.147633
0.452566
0.614496
0.381512
0.393505
0.400239
-0.271009
-0.34763
0.200202
0.178846
0.0854895
0.116381
0.100545
0.637757
0.597081
0.647712
0.620703
0.582251
0.608222
-0.61167
-2.1288
-1.25239
0.263627
0.06591
0.159379
0.067615
0.0520856
0.0595228
0.816905
0.856475
0.438324
0.572744
0.547186
0.471049
0.502362
0.554377
0.478939
0.513739
0.550484
0.532406
0.169847
-0.179739
0.0441549
0.67746
0.791653
-0.161226
-0.210554
-0.273008
0.122108
0.152626
0.138769
0.822978
0.788595
0.843825
0.211646
0.213707
0.0100759
0.01427
0.215815
0.215444
0.00799121
0.0102405
0.133629
-1.10719
-0.182997
0.20351
0.196264
0.211976
-0.0760218
0.291422
0.0271409
0.0962825
0.0638664
0.202098
0.151865
0.116167
0.00617995
0.0259593
0.0174118
-0.357273
0.208101
0.20763
0.211123
0.213783
0.213048
0.00674989
0.00961147
0.0067727
0.0150165
0.00991452
0.00973146
0.181159
0.192696
-0.487843
0.211652
0.213427
0.213092
0.20543
0.212069
0.209231
0.0199681
0.0120042
0.018117
-0.052469
0.0573572
0.388561
0.519381
0.314776
0.104327
-0.13303
0.292856
0.360833
0.256391
0.429795
0.382473
0.414449
-0.12431
-0.264054
-0.103207
-0.155846
0.201863
0.20157
0.194876
0.189533
0.207603
0.206035
0.209949
0.20605
0.208896
0.2106
-0.0354907
-0.0557211
-0.0920473
-0.174104
0.311839
0.400163
0.242066
0.239092
0.1449
0.0294138
0.0278135
0.0283763
0.0212884
0.0720063
0.069704
0.0805748
0.0803601
0.0546524
0.0526818
0.0694384
0.0655219
0.0732311
0.197224
0.195936
0.200642
0.20561
0.158455
0.164112
0.133033
0.151679
0.138673
0.0878394
0.1147
0.0948491
0.0103875
0.0101929
0.00753165
0.0312118
0.0346778
0.0159936
0.0120582
0.0159831
0.0117268
0.0109616
0.0207182
0.02463
-0.305561
-0.449526
0.760592
0.612165
0.36703
0.20057
0.205564
0.201533
0.205885
0.2083
0.211409
0.20917
0.20811
0.193536
0.195048
0.191942
0.191387
-0.484162
-0.517807
-0.385566
-0.437758
-0.0919541
0.312693
0.0667476
0.00745216
-0.00141164
0.208167
0.489395
0.344598
0.470974
0.49467
-0.615309
-0.25655
-0.563126
0.0029544
-0.115066
0.397919
0.454203
0.479648
0.423504
0.368467
-0.367085
0.25296
-0.363263
-0.324783
-0.145721
-0.243768
0.434866
0.365573
0.374138
0.402216
0.4193
0.37237
0.350974
0.349089
0.391739
0.392765
0.184713
-0.0217302
-0.0720956
-0.107136
0.349999
0.226308
0.288142
0.200182
0.196039
0.199844
0.197053
0.18415
0.190601
0.188766
0.190355
0.19302
0.203029
0.200521
0.198112
0.200512
-0.0331427
-0.0201293
-0.0396793
-0.238957
-0.196548
-0.275901
-0.114205
0.135971
0.106083
0.363717
0.403541
0.0784301
-0.112163
-0.0725805
-0.0259978
0.172187
0.160475
0.118253
0.161165
0.180726
0.153097
0.208266
0.192251
0.0494018
0.0639672
0.0374759
0.0383854
0.102104
0.119869
0.122473
0.0550803
0.053843
0.0336111
0.0299678
0.0839505
0.0528398
0.0709379
0.072516
0.028299
0.0315094
0.0348336
0.0484534
0.0460574
0.0498834
0.192029
0.192923
0.19268
0.207715
0.217647
0.230683
0.198855
0.177778
0.169126
0.172277
0.152291
0.161387
0.1598
0.166256
0.182274
0.189883
0.188557
0.190322
0.176757
0.178928
0.168999
0.170507
0.15464
0.135736
0.124069
0.0214041
0.0147111
0.0172216
0.0173986
0.0140024
0.0141702
0.0483876
0.0392804
0.0442134
0.0392804
0.0442404
0.0207531
0.0219615
-0.165193
-0.0343474
-0.435059
-0.388233
-0.49621
0.721963
0.769663
0.607699
0.505843
0.529183
0.655869
0.69503
0.433811
0.521157
0.518551
0.304923
0.779461
0.203372
0.205103
0.201264
0.199409
0.200996
-0.439953
-0.37063
-0.264829
-0.196377
-0.0589996
0.0414069
-0.495661
-0.0487794
0.0668269
-0.0805354
0.306217
0.321905
0.269827
0.29581
0.300075
0.133004
0.19619
0.255321
0.21105
0.250652
0.273318
0.23984
0.267107
0.212316
0.173765
0.173629
0.119534
0.141515
0.119244
0.0964455
0.192068
0.171447
0.181294
0.174129
0.19559
0.22062
0.212927
0.232298
0.251428
0.180597
0.146997
0.155283
0.179053
0.143323
0.156566
0.169387
-0.514391
-0.556937
-0.234399
-0.389127
-0.242116
-0.284294
-0.287833
-0.357511
-0.0567094
-0.681389
-0.649172
-1.26739
0.205936
0.561553
0.384636
0.325369
0.417608
0.397655
0.400693
0.430665
0.438408
0.341267
0.358907
0.361573
0.324223
0.338781
0.378963
0.373474
0.220625
0.0597202
0.0399725
0.0146116
-0.105615
-0.0729631
0.137646
0.0550275
-0.0119133
-0.00588731
0.163241
0.0617102
0.130505
0.154566
0.0907849
0.0526459
0.246371
0.305694
0.293042
0.277264
0.195395
0.204283
0.236449
0.273214
0.296607
0.32661
0.190646
0.197606
0.197209
0.195149
0.194125
0.195141
0.194998
0.196428
0.198023
0.198654
0.198153
0.0195828
0.0319064
-0.00545367
0.0026741
0.0303573
0.0115319
0.0574143
0.0319703
0.0435892
0.0438634
0.0190314
-0.00683201
0.0106581
0.0336746
0.178654
0.211453
0.19392
0.140187
0.256655
0.378997
0.437434
0.381943
0.22074
0.241469
0.280253
0.0938167
0.0934216
0.0864197
0.101288
0.102675
0.0399413
0.039956
0.0411241
0.0464903
0.0478106
0.0356131
0.0262514
0.0271693
0.0313215
0.0304247
0.0302206
0.179963
0.174811
0.176074
0.17067
0.16921
0.181876
0.18332
0.185816
0.189237
0.190282
0.183506
0.18772
0.189458
0.0353819
0.0290308
0.0322765
0.0282914
0.029028
0.0236855
0.0234177
0.019449
0.0524836
0.156612
-0.103817
-0.299708
-0.171298
0.0170048
0.128616
-0.153493
0.629061
0.388101
0.163524
0.310761
0.544559
0.224538
0.499993
0.332417
0.723717
0.668186
0.758719
0.557856
-0.198595
0.0799785
0.127285
-0.267277
-0.0460644
-0.034162
-0.153881
-0.102727
-0.118076
0.0102918
-0.206886
-0.322705
-0.663206
-0.585607
-0.146531
-0.175086
-0.0740884
-0.171064
-0.59763
-0.703042
-0.544926
0.300412
0.319548
0.337085
0.306814
0.332104
0.256913
0.251396
0.269452
0.279346
0.268873
-0.985257
-0.679416
-1.66565
-0.998486
-0.508692
0.28187
0.242049
0.454069
0.343578
0.409768
0.392002
0.357377
0.32561
0.326408
0.361273
0.0541944
0.161235
0.133643
0.148955
0.0588178
-0.00526084
0.283663
0.273395
0.313375
0.334534
0.296092
0.332633
0.190577
0.189339
0.18679
0.185184
0.182708
0.183681
0.110184
0.0806154
0.132233
0.114094
0.0742281
0.0595439
0.0425813
0.0384659
0.0361492
0.034908
0.0372941
0.0421601
-0.401125
-0.242303
-0.228257
-0.174931
-0.446487
-0.35703
-0.402922
-0.391205
-0.453949
-0.481554
0.39732
0.644483
0.52842
0.651724
0.48197
0.503399
-0.247407
-0.327509
-0.370211
-0.153565
-0.0503144
0.0434235
-0.480913
-0.384746
0.442035
0.507706
0.370239
0.208951
-0.0662711
0.0643853
0.239679
0.166637
0.211095
0.286255
0.281816
-0.218753
-0.194717
0.130414
0.34518
-0.143496
-0.0743064
-0.137362
0.142434
0.0700242
)
;

boundaryField
{
    wall-4
    {
        type            zeroGradient;
    }
    velocity-inlet-5
    {
        type            zeroGradient;
    }
    velocity-inlet-6
    {
        type            zeroGradient;
    }
    pressure-outlet-7
    {
        type            fixedValue;
        value           uniform 0;
    }
    wall-8
    {
        type            zeroGradient;
    }
    frontAndBackPlanes
    {
        type            empty;
    }
}


// ************************************************************************* //
