/*--------------------------------*- C++ -*----------------------------------*\
| =========                 |                                                 |
| \\      /  F ield         | OpenFOAM: The Open Source CFD Toolbox           |
|  \\    /   O peration     | Version:  2412                                  |
|   \\  /    A nd           | Website:  www.openfoam.com                      |
|    \\/     M anipulation  |                                                 |
\*---------------------------------------------------------------------------*/
FoamFile
{
    version     2.0;
    format      ascii;
    arch        "LSB;label=32;scalar=64";
    class       surfaceScalarField;
    location    "9";
    object      phi;
}
// * * * * * * * * * * * * * * * * * * * * * * * * * * * * * * * * * * * * * //

dimensions      [0 3 -1 0 0 0 0];

oriented        oriented;

internalField   nonuniform List<scalar> 
1300
(
3.75095
5.62643
-6.34308
3.75095
-6.21802
5.62643
-4.53871
4.53871
-1.54466
1.54466
1.8772
1.87375
-5.10695
5.10695
-5.16841
5.16841
-2.92709
2.92709
-5.24636
5.24636
-5.06922
5.06922
4.65937
-4.65937
-5.05303
5.05303
-1.99087
1.99087
-5.38981
5.38981
3.17207
-3.17207
-5.28192
5.28192
-0.634835
0.634835
-0.550307
4.30126
3.20065
3.20065
-2.67353
2.67353
-4.85027
4.85027
6.21819
-6.21819
9.58989
-9.58989
-3.2468
-3.37381
1.35459
-8.10508
-4.86343
-4.86343
-8.44058
8.44058
-2.81415
2.81228
3.03567
-3.03567
-1.67954
1.67954
-4.45802
-0.0806861
-4.45802
4.66878
-0.130071
4.66878
-1.70023
0.155574
-1.70023
4.10436
-4.10436
1.358
0.186659
1.358
3.03264
-3.03264
-1.87775
3.75495
1.87321
-1.8701
6.17136
-1.88085
3.7546
-4.84207
4.84207
-5.22994
0.122985
-5.22994
5.04411
0.0628445
5.04411
-5.28955
5.28955
-5.12453
-0.0438876
-5.12453
5.2144
-0.0459871
5.2144
3.12217
-3.12217
-2.95313
0.0260491
-2.95313
2.86551
0.061574
2.86551
0.353871
5.27256
-5.9803
8.79258
-5.27256
0.0262044
5.20868
0.0376725
5.20868
-5.10735
0.0381348
-5.10735
5.00962
0.0596023
5.00962
4.73947
-0.0800969
4.73947
-4.78515
0.125779
-4.78515
-3.33402
-3.27872
-5.12141
0.0683776
-5.12141
-2.02925
0.0383758
-2.02925
1.9768
0.0140747
1.9768
-3.81141
3.81141
-5.29779
-0.0920255
-5.29779
3.11919
0.0528859
3.11919
1.86896
1.88199
5.61992
-5.61992
2.44784
-5.27302
-0.00890574
-5.27302
-5.30204
-4.28784
5.30204
-0.0201188
-0.934123
0.299289
-0.934123
3.16074
0.0399072
3.16074
2.7834
0.0821117
-2.7834
0.109873
3.51003
-3.51003
2.06024
0.61329
2.06024
-5.56952
5.56952
4.94985
0.059768
-4.94985
0.0995789
6.15743
0.0607609
6.15743
-6.19956
-0.0186312
-6.19956
3.34687
-6.72068
-3.32967
4.96447
0.088558
-4.96447
0.101038
3.05384
-0.0181666
3.05384
-2.98676
2.98676
-3.02343
-0.0122458
-3.02343
-2.19256
0.513024
-2.19256
1.13252
0.547022
1.13252
-4.3455
-0.112521
-4.3455
-4.94818
-0.349608
4.94818
-0.279403
1.17418
-1.17418
-1.82928
0.129048
-1.82928
-4.21442
-0.131078
4.21442
-0.110062
-4.01964
-0.0847225
-4.01964
-3.01702
-0.00640789
3.01702
0.0156165
3.09258
0.0681603
-3.09258
0.0599417
-1.87039
3.75238
-1.88056
3.75377
-4.6759
-0.166166
-4.6759
4.96115
-0.119082
4.96115
5.40687
-0.0170527
-5.40687
0.176928
5.01519
0.0289195
5.01519
-5.29295
0.00340175
-5.29295
5.28884
0.000701809
5.28884
5.06016
-0.0449683
-5.06016
-0.0643691
5.25262
-0.0382177
5.25262
3.16755
-0.0453786
3.16755
-3.09471
-0.0274636
-3.09471
2.98565
-2.98565
2.96587
0.0197738
-2.96587
0.0127406
-11.1324
11.1138
-0.0349309
-11.0975
5.17375
5.17375
4.18032
0.559151
4.18032
-5.00451
0.219357
-5.00451
3.33405
-6.66372
3.26584
-6.59986
3.33474
-11.4398
3.35723
-6.63595
5.23794
-5.23794
5.17851
0.0594358
-5.17851
0.0571023
-2.02805
-0.00119541
-2.02805
-3.52543
-0.285979
-3.52543
4.09083
-0.27942
4.09083
-2.99935
2.99935
-3.0575
0.058153
3.0575
0.0616868
5.2673
-0.0146842
-5.2673
-0.00571286
1.14657
0.211424
-1.14657
0.21245
3.70455
-0.194516
3.70455
-3.31754
-0.192486
-3.31754
-2.0555
0.027447
2.0555
0.00473762
-5.81813
0.248617
-5.81813
-11.1907
0.0932624
-11.1531
-6.1063
-6.1063
2.33428
11.1269
-3.07508
-0.0196354
3.07508
-0.0212348
2.97544
0.0239026
-2.97544
-0.0113169
-2.99609
0.0104463
2.99609
-0.00933504
-2.60065
0.408088
-2.60065
-0.47495
0.47495
-0.68164
0.20669
0.68164
0.450877
1.7165
-0.542314
1.7165
1.93162
0.0451722
-1.93162
0.102346
-3.93729
-0.0823445
-3.93729
5.09747
-0.136324
5.09747
-3.21475
-0.102796
3.21475
-0.0471948
-0.0326793
11.1465
-5.14107
0.0337179
5.14107
-11.2072
11.2409
-3.25681
0.656154
3.25681
0.923511
5.29379
0.275725
-5.29379
0.289286
5.27501
0.0138341
-5.27501
0.0370673
-3.13363
-0.391796
-3.13363
-4.39452
-0.281381
4.39452
-0.303691
-11.4753
-0.202631
11.678
-11.4157
6.02076
0.136668
-6.02076
11.3776
-0.743261
-0.430924
0.743261
-0.268312
2.20446
-0.48796
2.20446
3.85897
-0.154426
-3.85897
-0.0783187
-5.23457
-0.0583744
5.23457
-0.137102
-2.67858
-0.455055
2.67858
-0.47412
-4.27161
4.31152
1.89975
-3.34239
-3.37829
-7.63024
1.84644
1.90594
4.29429
-7.03928
-4.40054
-6.93824
7.27488
-6.98559
-9.23041
9.15032
7.41352
-7.49825
-5.76505
5.82674
6.3633
-6.34768
1.88086
1.87409
10.5024
-10.3795
-10.571
10.4048
10.2076
-10.2515
10.7277
-10.7243
-12.3686
12.3824
-5.72198
5.74803
-6.61076
6.5833
-6.75435
6.70716
-3.35559
-3.24426
9.01375
-8.94537
11.7522
-11.7611
-10.46
10.368
3.36086
0.950656
3.42902
-1.88705
3.76791
-1.86755
3.7673
3.31749
-6.67308
3.34623
-6.72451
6.04834
5.70384
-6.02822
-1.60202
-5.87045
5.85229
-5.84508
5.83574
8.30712
-8.38781
-1.88753
3.76162
-1.86624
3.77218
-3.40874
-2.35632
3.35585
0.938435
5.55952
3.45423
-5.64808
-1.29017
-7.56177
7.40734
-7.85577
7.66329
-0.466953
5.84302
-5.37607
4.38332
-1.5742
7.41722
5.70068
5.92004
5.8699
-5.59417
1.11569
-6.49176
-6.39218
-2.67007
2.79912
2.6353
-2.44864
5.80217
1.61136
5.69211
-5.4223
-2.07595
-5.50464
3.79912
2.02762
3.85727
4.0315
2.33179
4.02509
3.04235
-3.027
-0.0153451
-3.08891
6.13126
0.734618
-5.44523
-4.50679
6.85669
3.64575
6.91953
-6.99224
-3.38722
-6.81531
-6.41963
-4.15137
-6.70102
6.69506
3.70977
6.57598
-7.99036
7.85326
6.80877
3.39884
6.76278
-6.74781
-3.50369
-6.81218
10.463
-2.69105
-7.77197
-6.92533
-5.44323
6.92463
3.80312
7.51686
4.86554
7.55393
3.57034
6.89269
-7.37345
1.93022
-3.83131
-1.89066
-3.81857
3.70896
2.03907
3.77053
-4.13882
-2.47195
-4.15845
-4.19356
-2.56079
4.23894
2.34436
-4.30122
-3.55455
4.40401
2.30314
2.97162
-7.37217
3.66433
-6.90859
-6.27218
-2.67318
-6.21508
4.07217
2.64972
-6.7219
-2.60091
10.9274
-5.2236
9.32542
-7.31954
-4.44155
-7.32525
-7.01343
-3.44657
-7.36304
-6.04904
5.65724
-6.07854
5.79912
11.6783
-5.14492
-6.53337
-3.9138
-2.43387
3.85386
-0.424841
-3.75322
3.73787
0.0146956
3.782
4.73266
4.30781
-3.8602
-1.98487
-3.87152
3.84124
1.9945
3.85169
6.19807
2.10905
6.068
-6.01078
-2.37703
-6.1233
9.31828
-8.80525
2.94347
-2.91602
5.11483
2.54846
-4.92031
-2.64146
5.94996
-2.96973
-2.98022
-12.3173
10.5812
1.73611
-4.90006
-0.516741
0.118094
-5.48998
-3.74043
5.36421
0.55583
11.137
7.39657
-5.51354
5.76215
6.16443
6.2242
-0.167984
5.84565
-5.1895
5.42832
-2.32159
-3.10673
5.09046
-5.22154
-1.03284
-5.18788
4.15504
0.470564
1.86887
-1.56959
-2.17206
-0.498016
-2.06971
1.60969
1.02562
1.82111
1.00209
1.79703
-2.86514
0.496035
2.36911
-1.86306
-1.95261
-3.60604
-0.911153
4.5172
5.39858
2.00876
-5.32026
-0.184387
2.81361
-2.79953
-0.876591
-2.72945
1.90567
-2.78226
-3.37576
-1.85816
5.23392
-3.35141
-0.520112
3.32751
0.529763
-3.75492
-2.11553
3.76717
0.257928
-3.0769
6.13706
-3.06016
-5.06178
2.53715
3.59412
4.56477
-4.87028
2.47934
2.39094
-1.27616
5.91939
1.00014
5.94831
-9.0748
5.68758
7.4097
2.95829
-7.39264
0.577335
-8.49747
9.74275
-8.21815
-1.52459
5.24449
4.49826
5.5274
6.15088
-4.12107
9.64847
-0.593011
-7.62514
9.09048
-6.13219
4.93406
-11.0663
-11.0849
3.4598
-6.98599
8.58501
-1.59902
-2.47829
-5.51206
9.46428
-0.927594
-8.53669
5.64839
-5.37627
-5.28075
10.657
-8.06732
8.78443
-2.65656
-6.12788
-6.6942
-4.03014
6.75258
1.10068
-9.90066
11.8309
-3.00798
5.92356
0.839223
5.88534
3.92504
-6.04146
2.11642
4.14228
-6.79884
2.54653
-8.588
-4.8264
9.46698
-4.64058
-7.49958
-6.70282
-0.796767
2.0254
9.80548
-6.89093
5.30453
1.5864
3.3172
0.534488
-3.33697
-0.481603
0.335943
4.43491
-4.77085
4.10648
4.18859
3.29069
1.14422
3.81648
2.03581
-3.79524
-0.36321
-4.01844
1.45765
-1.67408
-3.41516
4.87282
-3.88364
0.468479
-2.62807
-3.44125
6.06932
-4.51873
3.05021
3.08685
5.04471
-4.7714
1.33015
-2.3544
-2.41701
2.55349
-4.22757
1.8187
3.05412
4.12184
0.567284
4.78936
4.67761
-7.43909
0.530494
8.13184
-6.84167
1.68238
5.87154
-6.98692
0.284101
-5.93098
1.12926
-6.35286
-5.59263
4.6384
-8.08497
-6.42786
6.05415
0.0138557
-5.77474
-1.5883
-3.87313
-2.17591
-4.32818
-1.88915
-4.18939
-6.01021
-1.18187
-4.82834
4.47537
-4.50846
-2.19256
4.81215
0.986968
-6.73246
6.30153
-5.46508
4.97712
0.044229
3.69364
4.35204
1.91817
-2.41748
4.33565
-3.64398
5.75303
-7.30662
3.66264
4.04163
-6.41866
-3.26499
5.05736
4.26091
5.60438
8.73561
-12.3567
3.62107
-12.0695
11.0402
1.02927
-17.2473
5.1778
-8.5117
2.70792
0.235543
2.70673
0.642532
2.32142
-2.96395
-2.27349
-2.26875
-2.15547
-3.24437
5.39984
1.04875
-3.19659
2.14784
-3.39664
4.44538
0.0236293
-3.22021
5.14975
-2.82832
5.38529
-3.37301
2.01228
3.12164
5.37568
-2.25404
4.17988
-1.63142
1.70595
-3.95999
-1.53843
-2.94916
4.98823
-3.12016
3.58864
-0.217378
3.80602
-3.90953
0.939794
-0.618841
3.56975
3.67962
4.16292
-3.0187
2.7773
-4.40872
-1.18269
-3.84144
-0.787318
0.836838
-4.85364
4.0168
7.39506
-6.55822
-5.28681
9.95122
-4.66442
7.83832
-5.36067
-2.47765
-4.33545
-4.4698
3.92736
1.91829
9.75661
0.261491
-5.62216
-4.92801
-4.0045
3.25685
2.17147
-2.10981
3.84593
1.99172
-0.122847
0.622484
1.19863
1.86247
-1.23999
0.158508
1.70397
-1.41108
2.11839
0.695216
-2.16357
0.0938548
-1.38977
3.29544
0.979336
-2.00495
0.764961
1.10846
-3.43005
4.83501
-2.59852
-2.2365
5.94347
0.964886
-3.5634
4.22299
-3.75243
2.28039
-3.19154
-1.28302
-5.03544
-3.42409
-2.36603
4.51387
-3.03381
5.04257
1.1381
-4.85819
5.99629
-3.34808
1.48993
-3.05515
3.75036
-1.0973
-1.95785
2.62968
2.60424
-2.82049
0.0910425
-0.190817
2.1785
-2.36932
-0.603752
-2.46681
-4.57905
4.83698
-2.08838
4.56772
2.24726
-1.90359
6.47131
1.84804
-3.75163
-3.21374
-3.73385
-1.36068
3.20408
-1.00568
-5.8065
-7.13355
5.85147
0.0968403
-9.09101
10.2889
-1.19787
-5.44525
-0.24233
5.48682
-7.52244
0.723605
-4.97591
5.31297
6.31311
6.40995
-8.5464
0.00971789
-4.83663
1.39009
-6.22672
5.88835
-3.23386
6.69366
-7.40158
5.20902
-6.41461
5.16907
-1.05765
5.59271
-3.47629
2.17926
-6.2094
-5.10872
6.97533
-3.57649
7.81455
-4.07255
11.8871
-7.08053
6.91881
4.96829
-1.37935
-5.94591
-6.84356
5.46421
0.0752481
5.96059
4.86092
-2.82511
4.49771
2.20181
-4.55621
-2.02576
-6.39434
1.83813
-3.30749
-1.85985
3.69799
3.18486
3.71935
1.28098
-3.23775
6.63331
-7.43007
-1.99273
-3.5999
6.76263
-1.29842
4.03178
-7.63168
-2.32108
7.1373
-3.14938
-3.98792
-1.99238
-4.43547
4.02468
-8.46015
4.06029
-5.64859
1.99389
-10.5056
-4.73856
-5.00687
-1.60185
-3.86323
-7.07379
5.47195
-1.89599
4.40554
-8.88536
5.73598
-2.15488
7.62683
-3.48955
-0.838637
3.96367
1.01345
8.64028
1.41167
-4.67666
-2.26005
4.61467
-2.35463
0.996804
-3.44197
1.1727
2.40714
3.53633
-6.56218
0.143526
-4.53314
-4.02304
8.28395
5.92818
13.3232
0.966563
9.70428
-1.42033
10.6708
4.18406
4.63494
-3.54547
7.16654
0.471329
4.13397
-0.83503
2.84731
1.8717
1.91007
0.88946
2.2215
1.45812
3.1613
0.197342
-2.07141
4.58711
-8.59161
-1.03505
-8.03246
1.11786
5.68124
-4.56338
3.50321
-1.33174
1.14858
0.407385
-1.79282
1.38544
-2.69935
-1.91567
-0.211701
-1.49476
2.25973
1.80067
-2.04802
-0.651325
0.257514
-3.6816
2.93403
-2.84299
-0.238742
5.75755
-2.57058
0.201253
-1.08065
-2.26555
-2.76357
2.66972
6.14872
0.322586
3.08856
5.15957
3.04403
0.218929
4.4867
-6.08573
-4.10129
-6.07601
-0.187659
5.29916
2.03713
7.76835
7.00542
5.707
-1.92468
-9.35475
7.08196
0.084583
8.11123
-4.12331
-4.33685
4.07879
1.67424
-4.09265
-1.55595
-5.89279
-5.80821
-1.2287
6.96468
-7.41158
6.57294
4.39703
0.431314
-4.46977
-0.537102
4.26308
0.371854
11.0427
-1.08437
-6.73281
7.81718
-4.59687
3.56182
1.18656
2.65936
2.572
1.24026
-5.49255
-10.0559
-1.86058
-1.56947
-4.09707
0.420123
-2.2208
6.18225
-2.62043
3.7046
5.19676
6.34534
-1.76602
-4.7922
6.43043
-2.72584
3.6195
)
;

boundaryField
{
    wall-4
    {
        type            calculated;
        value           uniform 0;
    }
    velocity-inlet-5
    {
        type            calculated;
        value           uniform -3.75095;
    }
    velocity-inlet-6
    {
        type            calculated;
        value           uniform -5.62643;
    }
    pressure-outlet-7
    {
        type            calculated;
        value           nonuniform List<scalar> 8(6.34308 6.21802 6.62062 6.7505 6.61274 6.67654 6.59988 6.69197);
    }
    wall-8
    {
        type            calculated;
        value           uniform 0;
    }
    frontAndBackPlanes
    {
        type            empty;
    }
}


// ************************************************************************* //
