/*--------------------------------*- C++ -*----------------------------------*\
| =========                 |                                                 |
| \\      /  F ield         | OpenFOAM: The Open Source CFD Toolbox           |
|  \\    /   O peration     | Version:  2412                                  |
|   \\  /    A nd           | Website:  www.openfoam.com                      |
|    \\/     M anipulation  |                                                 |
\*---------------------------------------------------------------------------*/
FoamFile
{
    version     2.0;
    format      ascii;
    arch        "LSB;label=32;scalar=64";
    class       volVectorField;
    location    "9";
    object      U;
}
// * * * * * * * * * * * * * * * * * * * * * * * * * * * * * * * * * * * * * //

dimensions      [0 1 -1 0 0 0 0];

internalField   nonuniform List<vector> 
918
(
(0.985034 -0.00159345 0)
(0.00494998 2.9663 0)
(-0.0039154 1.68452 0)
(0.97916 0.00295344 0)
(-0.00397364 1.6563 -1.06192e-21)
(-0.00697674 2.94873 -1.92249e-18)
(0.872769 1.17463 7.19132e-19)
(0.520759 0.26991 -9.36375e-21)
(0.999897 -0.000361566 0)
(0.0530107 1.51222 0)
(-0.00947278 1.53894 0)
(0.873892 0.000703525 0)
(0.0110936 2.93022 0)
(0.00143028 2.7953 0)
(-0.0168079 3.15134 1.04622e-18)
(-0.000104337 1.58962 -1.97669e-20)
(0.631969 0.120723 5.76998e-19)
(0.231475 1.70965 5.11197e-19)
(0.965881 0.0139002 0)
(-6.61462e-05 1.581 0)
(0.219763 0.315078 -5.03858e-19)
(1.00186 -0.00469921 0)
(1.00018 -0.00925891 0)
(0.975885 -0.00499675 0)
(0.79692 -0.0293382 0)
(0.0197973 2.62936 0)
(-0.0152022 2.91004 6.68397e-19)
(-0.0100409 1.69842 0)
(-0.00895149 1.768 0)
(-0.0118491 1.70573 0)
(0.000737389 1.79922 0)
(-0.000713243 1.67557 8.41122e-22)
(0.00327334 1.59657 0)
(-0.0206729 2.98754 -6.74367e-23)
(-0.0167774 3.00537 1.49582e-18)
(0.0021221 3.00036 0)
(0.911805 0.00186687 0)
(0.32051 0.937623 4.33949e-20)
(0.830868 1.22545 -9.9961e-19)
(0.987566 1.03662 9.47731e-19)
(0.685296 1.3618 -1.59012e-19)
(0.735529 1.30862 9.01688e-19)
(0.566731 0.327435 9.13634e-21)
(0.564234 0.229665 0)
(1.20097 0.571326 0)
(0.511505 0.337978 4.24254e-20)
(0.484774 0.256253 -4.40241e-20)
(0.91146 -0.00209934 0)
(1.00031 0.000247076 0)
(0.999979 0.000211649 0)
(1.00385 -0.00737867 0)
(1.00097 -0.00159568 0)
(1.00012 -0.000490339 0)
(0.0186628 1.55541 -5.63334e-19)
(0.0337466 1.64086 0)
(0.0918439 1.53895 0)
(0.0135317 1.63969 0)
(0.0296834 1.47324 0)
(-0.00548142 1.60483 0)
(-0.0121416 1.63075 0)
(-0.00730699 1.52377 0)
(-0.0140171 1.65363 0)
(-0.00756724 1.55295 0)
(0.935581 0.00506763 0)
(0.930273 0.00440982 0)
(0.881785 -0.00294513 0)
(0.9229 0.0129434 0)
(0.851279 0.0122091 0)
(0.0148021 3.0003 7.04698e-19)
(0.0117218 3.00715 0)
(0.00632894 3.00322 0)
(0.0135912 2.99706 7.8731e-24)
(0.0081201 2.9584 -1.04736e-18)
(0.0144902 2.98228 0)
(0.0107972 2.90371 0)
(0.025163 2.93088 1.42985e-24)
(0.00417743 2.82597 0)
(0.0317147 2.91549 0)
(-0.00688112 2.74426 0)
(0.303702 3.5439 0)
(-0.132567 3.62168 0)
(0.136664 3.24347 9.73614e-19)
(-0.0184709 2.98533 0)
(0.00790089 1.76328 0)
(-0.00153273 1.67193 1.95025e-20)
(-0.000248562 1.59186 -3.18038e-20)
(0.690479 0.166543 -1.97953e-19)
(0.658563 0.0790268 -1.90855e-19)
(0.667334 0.193709 -5.96766e-19)
(0.629726 0.140636 -4.02375e-19)
(0.233649 1.29644 0)
(0.250589 1.74135 -5.47287e-19)
(0.412712 1.64727 9.14913e-19)
(0.985116 0.0134237 0)
(0.940381 0.012888 0)
(1.00055 0.000433821 0)
(1.00234 0.00948616 0)
(1.00175 0.0112163 -1.08586e-18)
(0.99182 0.00916122 8.28681e-19)
(-0.002308 1.66347 0)
(0.00267716 1.5819 0)
(-0.00947317 1.71941 0)
(-0.00607911 1.67785 0)
(-0.000179801 1.58599 0)
(0.312844 0.330168 1.57801e-19)
(0.343719 0.276232 0)
(0.994112 -0.00816396 0)
(0.957291 -0.00519116 0)
(0.892439 0.022511 0)
(0.865196 0.0143191 0)
(0.829638 -0.00721105 0)
(1.04876 0.00292956 0)
(0.828346 0.0220267 0)
(0.743247 -0.00536851 7.73088e-19)
(-0.035884 2.86498 3.52592e-19)
(0.0435294 2.90744 0)
(0.0560918 2.88401 0)
(-0.00661168 2.69692 0)
(-0.0129181 2.98521 6.16097e-19)
(-0.0180602 2.89567 0)
(-0.0153733 2.98826 -1.94556e-18)
(-0.0134048 2.92534 6.70937e-19)
(-0.00680127 1.79301 0)
(-0.000212974 1.78148 0)
(0.000253001 1.67821 -5.45355e-22)
(0.00262942 1.67155 0)
(0.00141515 1.58794 0)
(0.958939 0.00505024 0)
(0.914271 0.00610685 0)
(0.891993 -0.0100595 0)
(0.957766 -0.00191613 0)
(0.905495 -0.00488486 0)
(0.453474 1.13962 -5.58309e-20)
(0.534425 1.21189 0)
(0.197155 0.802818 9.26854e-21)
(0.216202 0.598364 0)
(0.945656 1.08604 -2.72738e-19)
(1.06519 0.881552 5.6474e-19)
(0.377691 1.64763 0)
(0.530177 1.50577 0)
(0.593869 1.4739 0)
(0.202966 0.186477 -1.91222e-19)
(0.602279 0.293542 0)
(0.591514 0.21341 1.16482e-19)
(1.04036 0.934309 0)
(1.11747 0.782329 0)
(1.14036 0.729202 -4.92305e-19)
(1.18416 0.626435 0)
(1.2359 0.418588 6.38668e-20)
(0.95501 0.000398576 0)
(0.950712 -0.00106467 0)
(0.905736 0.00157084 0)
(0.983503 -0.00837084 0)
(0.962353 -0.00427902 0)
(0.931982 -0.0035272 0)
(0.999835 0.00201153 0)
(1.00097 0.00215557 0)
(0.999711 0.000915317 0)
(0.0114329 1.62784 3.05336e-19)
(0.0529789 1.53818 0)
(0.00167785 1.64755 2.40001e-19)
(0.011397 1.56025 -4.30577e-19)
(0.0988599 1.72646 -4.31338e-19)
(0.0475279 1.68825 0)
(0.160886 1.63749 0)
(0.00428317 1.61571 0)
(0.0101504 1.47488 0)
(-0.0104309 1.68672 -1.36207e-21)
(-0.00547479 1.62173 0)
(-0.00584155 1.68649 -6.68595e-20)
(-0.00115902 1.60871 -5.82184e-21)
(-0.0133925 1.61708 0)
(-0.0150568 1.62686 0)
(-0.00586938 1.49693 0)
(-0.0104646 1.66492 0)
(-0.00253552 1.56352 0)
(0.993545 0.0116062 0)
(0.953458 0.00127893 0)
(0.978181 0.00730334 0)
(0.930357 0.00389748 0)
(0.888983 0.00033091 0)
(0.946436 0.00732979 0)
(0.939073 0.000456786 0)
(0.884714 0.00253052 0)
(0.00580479 3.06517 -6.22758e-21)
(0.0161558 3.05817 0)
(0.0147126 2.96921 0)
(0.00868858 2.87675 0)
(0.926084 3.95643 0)
(1.24119 3.29485 9.85624e-19)
(0.0675486 3.07845 0)
(-0.0279216 2.91011 0)
(0.00583746 1.7723 0)
(0.0115492 1.75768 0)
(0.00777848 1.75917 0)
(0.00331829 1.78697 4.93073e-21)
(0.014023 1.77056 0)
(0.00218087 1.78304 0)
(-0.00130303 1.59355 2.99645e-21)
(-0.00347524 1.68123 3.99972e-20)
(0.000835162 1.67369 3.24832e-20)
(0.000234398 1.58542 0)
(0.713445 0.124061 2.91081e-19)
(0.671928 0.0485191 -2.82106e-19)
(0.189524 1.40233 0)
(0.308698 1.21284 -2.58068e-19)
(0.136121 1.45385 -7.56748e-19)
(0.169378 1.35628 7.55305e-19)
(0.891402 0.00661461 0)
(0.959489 0.0122477 0)
(0.973647 0.0159419 0)
(0.915067 0.0139016 0)
(-0.00163632 1.66997 0)
(-0.00109686 1.6686 0)
(0.00392325 1.57486 0)
(0.469275 0.352902 3.88663e-19)
(0.417419 0.340882 -4.77332e-19)
(0.416243 0.257331 0)
(1.16889 0.0833293 -3.12462e-21)
(1.15564 0.0364561 0)
(1.07915 0.0393687 0)
(0.995764 0.00652171 0)
(0.737307 0.102578 0)
(0.776479 0.0664124 -1.23671e-18)
(0.704412 0.0382562 4.71952e-19)
(0.00970112 2.9826 4.41303e-19)
(-0.0319975 2.86795 4.96022e-20)
(0.00417439 3.04964 -1.34376e-20)
(0.0195409 3.04424 4.85689e-19)
(-0.0150605 2.99624 2.23001e-20)
(-0.0130567 2.9493 -9.04706e-23)
(-0.0173197 3.01232 -4.22365e-19)
(0.0141511 3.02547 3.02779e-19)
(0.00685025 3.036 -4.74106e-19)
(0.976365 0.00468579 0)
(0.970898 0.00664008 0)
(0.920524 0.00461489 0)
(0.950114 0.00778419 0)
(0.946149 -0.00477282 0)
(0.88672 -0.00179244 0)
(0.95062 0.000549868 0)
(0.945705 -0.00419703 0)
(0.895649 -0.0079057 0)
(0.720181 1.43881 2.23777e-19)
(0.760226 1.54682 0)
(0.0733942 -0.03744 -3.05277e-20)
(0.190113 0.406364 -3.78286e-19)
(0.131775 0.492537 4.93614e-20)
(0.141202 0.201053 -1.31958e-19)
(0.416743 0.772985 1.13106e-18)
(0.299211 0.487865 3.47644e-19)
(0.658561 0.234091 -4.13863e-19)
(0.631485 0.271632 1.06216e-19)
(0.61364 0.184071 2.22731e-19)
(1.22515 0.46762 2.92482e-19)
(1.24971 0.259254 3.10407e-19)
(0.00408472 1.65554 2.00278e-19)
(0.017493 1.59044 0)
(1.02879 0.0224291 0)
(1.00408 0.00975972 0)
(0.965163 -0.00112199 0)
(0.0107787 3.07362 0)
(0.0198098 2.9446 8.33624e-19)
(0.0163052 2.95639 0)
(0.00590613 2.85154 -8.26907e-19)
(0.00615695 3.09117 1.9816e-19)
(0.00734572 3.08238 0)
(0.803632 1.84416 -2.18699e-19)
(1.25112 2.49783 6.00799e-19)
(0.789356 1.97445 -1.42243e-18)
(0.0206633 2.98442 -3.27549e-19)
(0.0355315 3.00644 0)
(-0.0322262 2.88148 0)
(-0.00205304 1.6772 -5.61441e-21)
(-0.00351259 1.68351 -5.87583e-21)
(0.000408133 1.60038 -6.69741e-21)
(0.267876 1.29637 8.14084e-19)
(0.348092 1.10019 -5.62405e-19)
(0.0396805 1.58842 5.05694e-19)
(0.0830487 1.5269 -6.21898e-19)
(0.10236 1.45603 7.31111e-20)
(0.00261493 3.11783 -1.17871e-18)
(0.0175531 3.11765 1.26008e-18)
(-0.00855975 2.9812 5.37021e-19)
(-0.00255632 2.97797 -4.77679e-19)
(-0.0213695 2.88264 -5.46935e-19)
(0.00910253 3.09899 -1.45467e-18)
(0.00256189 3.10622 1.41364e-18)
(0.437898 0.602036 0)
(0.364965 0.453809 2.91964e-19)
(0.109158 0.0198479 -7.30345e-20)
(0.418081 0.900374 9.6317e-19)
(0.365872 0.709673 -1.46546e-18)
(1.24698 0.172664 -5.23984e-20)
(1.24878 0.312356 0)
(1.23559 0.123173 1.2095e-19)
(-0.00275355 1.69597 -1.67935e-21)
(0.00653296 1.67485 0)
(0.0107058 1.61698 0)
(0.319122 1.16784 -2.85912e-19)
(0.3473 1.04529 -6.61849e-19)
(0.37066 0.928748 1.18869e-18)
(1.00602 -0.0118312 0)
(1.00566 -0.00563376 1.99609e-19)
(-0.00608923 1.79286 0)
(-0.00939565 1.79726 0)
(1.00246 0.00361175 1.40772e-21)
(1.00125 0.0109965 4.05388e-19)
(0.0030066 1.78761 -6.32804e-21)
(0.000269763 1.78774 0)
(0.0393399 3.1823 1.19508e-19)
(0.38291 3.48029 0)
(1.10701 0.647629 6.69161e-20)
(1.01284 0.0150249 -1.84719e-21)
(1.0051 -0.0102624 0)
(1.00247 -0.000306746 2.81478e-22)
(0.0317862 1.81511 0)
(0.0313244 1.75936 0)
(-0.0128473 1.79354 0)
(-0.00432547 1.78629 9.38336e-20)
(0.000344542 1.79121 4.57113e-20)
(0.997189 0.0132333 1.80756e-21)
(1.0446 0.00946351 0)
(1.07235 0.0211625 0)
(0.013021 1.76396 0)
(0.00623654 1.78246 0)
(-0.00314664 1.79411 0)
(0.100168 1.79566 -2.92435e-19)
(1.01156 -0.016882 0)
(1.00539 -0.0268401 0)
(1.0056 0.00121772 2.51265e-19)
(1.00276 -0.00416326 -3.05098e-19)
(1.00199 -0.00346455 0)
(0.00328754 1.77168 0)
(-0.00246492 1.79182 0)
(0.00215712 1.78101 0)
(-0.00328921 1.79459 0)
(-0.00376826 1.79071 0)
(-0.00441947 1.7936 0)
(1.02427 0.00588183 0)
(1.01905 0.00116657 -8.25872e-22)
(0.716382 1.16906 5.04891e-19)
(1.00266 0.00176072 -2.52539e-19)
(1.00377 0.00666512 2.99836e-19)
(1.00113 0.00242603 0)
(1.01151 0.0118186 2.43515e-19)
(1.00667 0.0126423 -3.04719e-19)
(0.998057 0.0134368 0)
(0.00535865 1.78525 0)
(0.00288352 1.78715 1.81058e-20)
(0.00241371 1.78312 -1.30495e-20)
(1.1634 0.248928 -3.72011e-20)
(1.10419 0.0838403 0)
(0.0647005 3.08375 -5.36579e-19)
(0.065933 2.85459 -4.36598e-20)
(0.136296 3.21004 7.03916e-19)
(0.134048 3.23374 -1.49864e-20)
(0.13417 3.23677 0)
(0.0227261 3.13921 1.19845e-19)
(0.0771558 3.16711 5.27985e-19)
(0.0729651 3.19183 -2.313e-19)
(0.0293778 3.12792 0)
(0.697351 0.347827 0)
(0.604602 0.400992 0)
(1.07305 0.670675 -2.51902e-19)
(1.06266 0.793391 -9.05448e-20)
(1.11858 0.543649 0)
(1.16797 0.508642 0)
(1.01275 0.0158825 -4.57102e-19)
(1.01136 0.0177612 -1.503e-21)
(1.00702 -0.000827839 0)
(1.00917 0.00377066 0)
(1.00712 0.00100919 0)
(1.01461 0.00664162 0)
(1.00505 0.000329544 0)
(1.01851 0.0109081 0)
(1.01128 0.00839481 0)
(1.00729 0.00260955 0)
(0.0289583 1.81163 0)
(0.0170653 1.81713 0)
(0.0422736 1.82938 0)
(0.0360664 1.81846 0)
(0.0426501 1.75559 0)
(0.0608738 1.76034 -3.26642e-19)
(0.0173248 1.77167 0)
(0.0126114 1.76567 1.66045e-19)
(0.0372832 1.78284 -1.67903e-19)
(-0.0111704 1.79713 0)
(-0.00994149 1.7971 0)
(-0.0188792 1.79298 0)
(-0.0184563 1.79706 0)
(-0.00128893 1.78857 -5.63282e-20)
(-0.000361918 1.79141 6.3897e-20)
(-0.00288408 1.79257 8.33356e-20)
(0.000242422 1.79207 0)
(-0.00337326 1.79339 -1.07169e-19)
(-0.00394247 1.79034 -6.14133e-20)
(0.000546979 1.78921 4.58203e-20)
(-0.00109523 1.78908 -8.38424e-20)
(3.75414e-05 1.79143 -9.96532e-20)
(1.00718 0.0144202 4.47408e-19)
(1.00884 0.00633566 3.0345e-21)
(0.998527 0.0245437 -4.6831e-19)
(0.986652 0.0204441 5.84695e-19)
(1.03898 0.0153822 0)
(1.04106 0.00633278 0)
(1.05774 0.0302212 0)
(1.04384 0.00848432 0)
(1.05923 0.0121568 0)
(1.09191 0.0665342 0)
(1.0723 0.0419589 0)
(1.0945 0.0341125 0)
(0.0104852 1.77553 -2.06147e-21)
(0.0120676 1.76223 0)
(0.0130586 1.76792 0)
(0.00326531 1.78504 2.08449e-20)
(0.00094023 1.78465 -9.05285e-22)
(-0.00142618 1.77397 1.63465e-20)
(-0.00159724 1.78167 -1.65155e-20)
(-0.00338368 1.79221 0)
(-0.00237026 1.79188 0)
(-0.00206961 1.79064 0)
(-0.00293185 1.79421 0)
(-0.00212109 1.7936 0)
(0.161351 1.73175 5.03034e-19)
(0.219212 1.64966 2.48008e-19)
(0.419917 1.63953 -2.06582e-19)
(0.169353 1.69833 5.10289e-19)
(0.160147 1.92633 1.40334e-19)
(1.00499 -0.0152555 0)
(1.00766 -0.0262974 0)
(0.999662 -0.027298 0)
(1.01427 -0.00750382 0)
(1.00878 -0.00813271 0)
(1.00542 -0.0105452 0)
(1.0093 -0.0161702 0)
(1.00857 -0.0183334 0)
(1.02087 -0.000844 4.33219e-19)
(1.02154 -0.00186719 -5.43401e-19)
(1.01876 0.00383325 -4.41875e-19)
(1.01514 0.00565724 5.45694e-19)
(0.708205 1.21288 0)
(0.587938 1.25509 5.49578e-19)
(0.80784 1.11639 3.54663e-19)
(0.850092 1.08933 -4.75214e-19)
(1.13998 2.66126 -3.57817e-19)
(0.826463 0.12702 2.94012e-19)
(1.10667 0.0899626 0)
(1.15294 0.171073 3.7226e-20)
(1.14371 0.153332 2.30055e-21)
(0.965074 0.126877 0)
(0.135914 3.00107 8.3733e-20)
(0.12693 2.89748 -6.40327e-19)
(0.0620971 2.34353 4.8033e-19)
(0.143725 0.187788 -1.95691e-19)
(0.330511 3.41085 -4.10634e-19)
(0.185424 3.32074 0)
(0.224544 3.34761 5.34805e-19)
(0.244051 3.05697 -5.77911e-19)
(0.317843 3.19357 0)
(0.00633815 3.12099 2.79312e-20)
(0.0171007 3.12962 -3.57215e-19)
(0.0152219 3.12512 5.25768e-19)
(0.0376124 3.14071 0)
(0.0370291 3.15238 0)
(1.25993 2.6141 0)
(0.543374 0.852239 -2.66911e-19)
(0.988149 0.951809 -2.06384e-19)
(0.929029 0.972128 0)
(0.822054 0.888741 6.37994e-20)
(1.03598 0.836388 3.11741e-20)
(0.405106 0.468026 -5.57534e-19)
(0.727209 0.341679 -2.22603e-20)
(0.739169 0.305958 2.28377e-19)
(0.609984 0.431563 1.82681e-20)
(0.572269 0.424911 -7.46576e-19)
(0.692773 0.371336 0)
(0.679629 0.425795 3.77948e-19)
(0.681975 0.418849 0)
(0.642373 0.421538 0)
(0.662101 0.365335 0)
(0.739835 0.59417 1.38497e-19)
(1.15494 0.257885 -5.24319e-20)
(1.15626 0.387775 0)
(1.18447 0.359482 0)
(0.795486 0.216779 3.44474e-19)
(0.779614 0.547331 -1.96021e-19)
(0.687765 0.497722 -3.1615e-19)
(0.87606 0.406994 -2.99663e-19)
(1.02102 -0.00245527 2.97239e-19)
(1.0154 0.0104268 -3.11882e-19)
(1.01709 0.00423176 0)
(1.02217 0.0100597 0)
(1.01238 0.0100268 -2.7979e-19)
(1.01541 0.00930979 2.76782e-19)
(1.01858 0.00311318 0)
(1.01998 8.12139e-05 0)
(1.01979 0.00944008 0)
(1.02114 0.0112716 0)
(1.03111 0.00245862 0)
(1.02995 0.00178016 0)
(0.0165181 1.81568 0)
(0.00958735 1.80467 0)
(0.0603115 1.82972 2.88223e-21)
(0.0971116 1.80163 1.38703e-19)
(0.0665304 1.83802 2.88061e-19)
(0.0701849 1.83194 -1.39682e-19)
(0.0629808 1.83638 0)
(0.0547079 1.78957 -1.14007e-19)
(0.0542225 1.79329 0)
(0.158543 1.89009 -2.00995e-19)
(0.178157 1.79872 5.76046e-19)
(0.0694328 1.81288 1.01946e-19)
(0.071104 1.79556 4.79164e-20)
(0.0745366 1.81588 3.99923e-20)
(0.0527078 1.77805 -4.86781e-20)
(0.0923165 1.80527 1.1749e-19)
(0.0831152 1.8165 6.72413e-20)
(0.0175968 1.78946 -5.07898e-20)
(0.0298444 1.77779 0)
(0.0254152 1.77404 1.94617e-19)
(0.0296483 1.78151 0)
(0.0156762 1.77059 -1.82384e-19)
(0.0259125 1.77251 0)
(-0.0131864 1.77765 -4.24025e-20)
(-0.000747599 1.78935 0)
(-0.013006 1.78847 0)
(-0.0173641 1.77654 4.93987e-20)
(-0.000196173 1.78509 -2.6501e-21)
(0.0247515 1.78732 1.96062e-19)
(0.00804474 1.78547 1.34869e-21)
(-0.00704249 1.77621 3.60382e-20)
(-0.006333 1.77734 -2.26662e-20)
(-0.0106106 1.79693 0)
(-0.00934141 1.79685 0)
(0.0133699 1.79265 1.20032e-19)
(0.00881306 1.789 8.13466e-20)
(0.00137847 1.78755 -1.16772e-19)
(0.0301878 1.79905 0)
(-0.00331179 1.77191 -7.20233e-20)
(-0.00150507 1.78209 3.21651e-20)
(-0.00492669 1.78298 -9.96198e-21)
(-0.00624734 1.77594 -4.46871e-20)
(-0.00714533 1.78631 -1.53198e-20)
(-0.0068992 1.78731 7.444e-20)
(1.01452 0.00741007 -2.91092e-19)
(1.01347 0.00464664 3.02799e-19)
(1.01077 0.00314001 0)
(0.992431 0.0563025 4.39686e-19)
(0.984009 0.0285691 -4.98546e-19)
(0.959222 0.0239177 5.71832e-19)
(0.996982 0.0953637 -5.62119e-20)
(1.02508 0.00360808 0)
(1.03046 0.0117344 2.52242e-19)
(1.03259 0.00414506 -2.50164e-19)
(1.03029 0.0352681 -1.42966e-20)
(1.0294 0.0198931 1.26539e-19)
(1.00814 0.0323772 0)
(1.00048 0.0296003 -4.54253e-20)
(1.00538 0.0240251 0)
(1.0077 0.021773 0)
(1.018 0.00413039 0)
(1.01685 0.00501863 0)
(1.00672 0.0234409 9.50879e-20)
(1.01056 0.019171 -2.17434e-19)
(1.00987 0.0342792 -1.00137e-19)
(1.00307 0.0270278 -1.12733e-19)
(1.0057 0.0333262 2.06324e-19)
(1.04193 0.0386839 0)
(1.03185 0.0881805 0)
(-0.00315912 1.7698 -2.61366e-20)
(0.00415078 1.76475 -2.36765e-21)
(-0.00220652 1.76558 0)
(0.000363076 1.77699 2.58842e-20)
(0.00868716 1.77259 4.23145e-21)
(0.00342719 1.77609 -4.01464e-21)
(-0.00477728 1.78955 5.42108e-20)
(-0.00569336 1.7861 -3.31952e-21)
(-0.00707271 1.78557 1.73332e-20)
(-0.00445036 1.78714 -3.00253e-20)
(-0.00467259 1.78707 -3.01195e-21)
(-0.00429878 1.78761 3.6724e-22)
(-0.00781177 1.7753 2.90793e-20)
(0.0458727 1.68819 -2.21639e-19)
(0.025941 1.78141 -1.19287e-21)
(0.549649 1.32932 -5.37991e-19)
(0.317742 1.54047 -2.37749e-19)
(0.41805 1.46356 0)
(0.47406 1.63738 2.15893e-19)
(0.50994 1.52985 2.94098e-19)
(0.220681 1.69167 5.58797e-20)
(0.237389 1.70449 -6.75463e-19)
(0.319871 1.75144 5.66625e-19)
(0.369584 1.6682 0)
(0.270094 1.68564 -4.49263e-19)
(0.0957447 1.73568 8.43544e-19)
(0.151226 1.7241 -4.84501e-20)
(0.0991889 1.7385 -1.14065e-18)
(0.869365 2.04875 2.86757e-19)
(0.650919 1.64841 0)
(1.02516 -0.0130294 1.02053e-20)
(1.01258 -0.0207416 -8.12976e-21)
(1.01963 -0.00704941 -1.46225e-19)
(1.03408 -0.00467397 1.47954e-19)
(1.03397 -0.00901621 0)
(0.577308 0.977668 0)
(0.716157 0.86043 0)
(0.730187 1.03533 0)
(0.731468 0.853716 0)
(1.17048 2.72549 -5.73025e-20)
(0.963462 2.43764 0)
(0.727407 2.76797 -8.17011e-21)
(0.464899 2.60036 0)
(0.645142 2.73208 -1.24074e-20)
(0.722929 2.72698 0)
(0.837612 0.146237 0)
(0.815474 0.150096 8.48585e-20)
(0.890932 0.119554 4.35671e-19)
(0.846423 0.119898 -1.70001e-19)
(0.836543 0.0843463 -5.29686e-19)
(1.0051 0.194216 -2.78455e-19)
(0.911653 0.275123 -1.53285e-20)
(0.881416 0.261006 4.02954e-19)
(0.938864 0.169552 2.99106e-19)
(0.921294 0.148101 -5.49928e-19)
(0.905823 0.149848 7.12158e-20)
(0.93485 0.20855 -1.41166e-19)
(0.909993 0.172346 0)
(0.96916 0.137956 -2.60135e-19)
(0.987786 0.143869 0)
(0.980652 0.163307 0)
(1.0436 0.10612 8.73428e-20)
(1.01007 0.145745 -1.30341e-20)
(1.00295 0.204454 -1.38691e-19)
(1.05624 0.184181 0)
(1.00367 0.0255917 2.23129e-19)
(1.00364 0.0319831 2.68583e-19)
(1.00765 0.0284229 -2.20577e-19)
(1.00979 0.043362 -1.81246e-19)
(1.002 0.0532513 -3.07966e-19)
(0.945641 0.118511 0)
(0.973209 0.0914873 0)
(0.953197 0.0366755 -2.05383e-19)
(0.918395 0.0506494 8.81224e-20)
(1.00666 0.0885393 2.57968e-19)
(1.00442 0.10896 -2.67904e-19)
(1.01387 0.136269 2.45207e-19)
(1.00748 0.131488 0)
(1.01561 0.0876174 0)
(1.00276 0.0713896 -1.1259e-19)
(1.00899 0.0786305 -2.06864e-19)
(0.976372 1.19979 -4.06568e-19)
(0.982646 1.71589 4.12154e-19)
(1.27311 2.78299 1.42133e-19)
(1.27523 3.07306 -5.95208e-20)
(1.25777 2.78248 3.67959e-19)
(1.31576 2.72158 -2.58188e-19)
(1.20768 2.37582 2.46445e-20)
(1.26738 3.00359 1.88686e-19)
(1.26782 3.00047 -2.35287e-19)
(1.248 3.22414 -2.35524e-19)
(1.39828 2.94881 3.25326e-19)
(1.38799 2.86377 0)
(0.544279 0.870826 -1.7971e-20)
(0.13397 1.35242 3.20268e-19)
(0.514781 0.551054 3.72121e-19)
(0.3205 0.344817 3.93457e-19)
(0.566212 0.444104 4.20396e-19)
(0.538301 0.49757 -6.81341e-19)
(0.537463 0.513018 5.55714e-19)
(0.510975 0.489635 -2.20208e-19)
(0.487874 0.415005 5.0822e-19)
(0.803377 0.244066 5.90991e-19)
(0.762009 0.293043 0)
(0.773625 0.259711 1.1963e-20)
(0.659205 0.509698 1.98207e-19)
(0.65291 0.48339 -7.24287e-19)
(0.58293 0.507715 1.60026e-20)
(0.614299 0.460316 0)
(0.628779 0.754246 1.72368e-19)
(0.821735 0.715618 4.13913e-20)
(0.751147 0.833035 -5.98298e-20)
(0.850953 0.733487 -1.52723e-20)
(0.901954 0.796717 1.49687e-20)
(0.908119 0.789821 -1.53575e-20)
(0.776928 0.6219 -2.32195e-19)
(0.87681 0.700511 1.4158e-20)
(0.950421 0.689085 0)
(0.930859 0.659007 -1.88259e-20)
(0.943326 0.29795 6.80361e-20)
(1.0663 0.269904 2.04963e-20)
(0.988158 0.23079 1.14382e-19)
(0.930576 0.332724 -1.51424e-19)
(0.982069 0.401041 0)
(1.03668 0.393636 0)
(0.831231 0.339953 4.07379e-21)
(0.840525 0.280201 0)
(0.854288 0.254971 2.01446e-19)
(0.848392 0.265256 -3.37616e-21)
(0.868198 0.407086 8.19564e-19)
(0.831952 0.479343 2.05654e-19)
(0.830711 0.435576 -2.68065e-19)
(0.756256 0.43146 -2.8886e-19)
(0.745304 0.427838 1.90987e-19)
(0.723707 0.415492 -1.87667e-19)
(1.01894 0.01444 2.36221e-19)
(1.02617 0.00563313 0)
(1.02946 0.00694308 1.60494e-19)
(1.01751 0.0135529 -3.13561e-21)
(1.02551 0.00580126 1.7754e-19)
(1.02583 0.00324069 -3.64554e-19)
(1.02279 -0.00193364 0)
(1.02238 -0.00300544 -7.54404e-20)
(1.02814 0.00128657 1.87383e-19)
(1.02229 0.00337012 -9.94505e-20)
(1.02341 0.00124485 7.30301e-20)
(-0.0179355 1.79385 0)
(-0.012682 1.78772 0)
(0.005669 1.80434 0)
(-0.00984902 1.79778 0)
(0.0335355 1.80519 4.76714e-20)
(0.0275736 1.81115 -1.21238e-20)
(0.0368312 1.79859 -3.95496e-20)
(0.0313349 1.81422 -1.48144e-20)
(0.0232712 1.80298 -6.83533e-20)
(0.0237419 1.80419 4.96373e-20)
(0.0362685 1.81062 -2.3118e-20)
(0.0245416 1.82098 6.88888e-21)
(0.0115931 1.80436 -3.77877e-22)
(-0.000253051 1.79699 7.23068e-21)
(0.0237466 1.77282 -2.01949e-19)
(0.027744 1.76543 0)
(0.04408 1.75862 1.21235e-19)
(0.0447403 1.78712 8.04998e-20)
(0.0897639 1.77501 -9.13196e-20)
(0.10717 1.74047 0)
(0.113836 1.73102 -6.36137e-19)
(0.152677 1.76965 4.43501e-19)
(0.0842537 1.77257 -3.21774e-19)
(0.0584329 1.75733 1.31707e-19)
(0.0355346 1.73987 0)
(0.00573301 1.78541 -1.46631e-19)
(0.000143068 1.78116 -1.73728e-19)
(0.00140708 1.78776 0)
(0.00946722 1.78544 -4.56889e-21)
(0.0160198 1.7877 7.32372e-20)
(-0.0127824 1.78121 7.2521e-21)
(-0.010552 1.78552 -1.19744e-19)
(-0.00850131 1.77814 3.11557e-20)
(-0.0117888 1.76822 4.30686e-20)
(-0.0109619 1.77597 0)
(-0.00775134 1.77944 0)
(-0.00306618 1.79405 2.89233e-20)
(-0.00153713 1.78584 -9.19874e-21)
(-0.00448573 1.78317 0)
(-0.00700905 1.79552 2.31483e-20)
(-0.00531965 1.79455 -4.49959e-20)
(1.01527 0.01305 0)
(1.01719 0.0129729 -2.38039e-20)
(1.01213 0.0163035 -1.75171e-19)
(1.01504 0.023477 0)
(1.01479 0.0259376 0)
(1.01559 0.00693973 -4.98189e-21)
(1.01774 0.00631493 2.83715e-19)
(1.0164 0.00727271 3.43901e-19)
(1.01766 0.00699365 0)
(1.01735 0.00687041 0)
(1.01385 0.0128524 1.74724e-19)
(1.01398 0.00943971 0)
(1.01804 0.00903571 0)
(-0.0114589 1.77364 0)
(-0.00935328 1.76816 3.45228e-21)
(-0.00835024 1.76617 1.61551e-20)
(-0.00477928 1.78527 0)
(-0.00738279 1.77755 2.16066e-20)
(-0.00598811 1.78618 -9.60493e-21)
(-0.00385999 1.78981 0)
(0.0546127 2.17306 0)
(-0.0431874 1.82498 2.04063e-20)
(0.00110945 1.9384 0)
(-0.0375053 1.74794 -1.77511e-19)
(0.108811 1.41586 0)
(0.0558956 1.62073 1.51656e-19)
(0.951251 2.83326 -2.54457e-21)
(0.868395 2.22815 -3.79006e-19)
(0.934282 2.08365 -4.00434e-19)
(0.681199 1.75672 2.2953e-19)
(0.552262 2.3616 0)
(0.626297 2.48681 0)
(0.843402 1.98462 0)
(0.807369 1.73205 -7.31483e-19)
(0.29488 2.42987 -3.73152e-19)
(0.470389 2.37947 -1.09954e-19)
(0.405694 2.5611 8.21591e-20)
(0.540533 1.57752 0)
(0.617741 1.61525 0)
(0.594849 1.53151 -3.3191e-19)
(0.48978 2.10661 0)
(0.812615 0.932606 0)
(0.609491 0.989444 -3.60583e-21)
(0.641955 0.91665 -2.81473e-21)
(0.908414 0.974537 0)
(0.773258 1.09011 3.62044e-20)
(0.779916 0.890605 2.63848e-20)
(0.795628 0.962983 0)
(0.768881 0.921374 -8.06279e-20)
(0.717654 1.0276 0)
(0.680486 0.945074 0)
(1.16536 2.92243 1.09326e-19)
(1.19883 2.92956 2.80766e-19)
(1.07472 2.62225 -6.55115e-19)
(1.01674 2.64367 1.05167e-19)
(1.10261 2.89351 0)
(1.00536 2.90125 -1.43592e-19)
(1.0157 2.60478 8.67845e-20)
(0.873255 2.34648 -1.03862e-20)
(0.473707 2.13464 0)
(0.609619 1.08528 3.59299e-19)
(0.613573 1.0791 0)
(0.867003 0.191655 0)
(0.82806 0.176039 0)
(0.775642 0.190747 0)
(0.871521 0.20938 -3.14892e-19)
(0.817044 0.217984 1.97997e-19)
(0.9174 0.0507391 -1.81549e-19)
(0.910014 0.094075 0)
(0.88613 0.106381 8.24674e-20)
(0.875132 0.0707739 3.354e-19)
(0.886183 0.0504864 -2.06368e-19)
(1.1737 3.33563 -9.01675e-19)
(1.23263 3.2572 0)
(1.16343 3.36822 -1.84852e-18)
(0.643724 3.53489 1.57093e-18)
(0.862031 3.09759 2.79705e-19)
(0.511697 0.981377 3.63775e-19)
(0.478784 1.00828 0)
(0.322699 0.579696 -8.90053e-20)
(0.383036 0.733155 -4.32219e-19)
(0.495718 0.530521 -1.16216e-19)
(0.485825 0.556531 1.35022e-19)
(0.605575 0.50691 2.82868e-19)
(0.631648 0.525828 0)
(0.590291 0.615922 0)
(0.550125 0.564806 0)
(0.929019 0.577777 -4.67269e-20)
(0.829451 0.522807 -1.98448e-19)
(0.852981 0.5689 9.54023e-20)
(0.885588 0.493389 -1.49615e-19)
(1.00699 0.459593 0)
(0.991553 0.5398 -9.59552e-21)
(0.78129 0.387 -4.25365e-19)
(0.787247 0.374473 6.37492e-19)
(0.756324 0.388154 3.33389e-19)
(0.748406 0.365482 -3.6844e-19)
(0.819548 0.31381 -2.69664e-19)
(0.781108 0.318916 3.31179e-19)
(1.02243 0.00757083 -1.86852e-19)
(1.02166 0.00520662 3.84444e-19)
(1.01983 0.0137861 2.22769e-19)
(1.01878 0.011538 -2.65756e-19)
(1.01141 0.0137046 0)
(1.01789 0.00639354 -4.44781e-19)
(0.0370801 1.79477 2.82304e-20)
(0.0360106 1.79571 0)
(0.038527 1.78425 2.52804e-19)
(0.0400932 1.78904 -2.37578e-19)
(0.0355236 1.79225 7.09298e-20)
(0.039103 1.79356 0)
(-0.00961379 1.77405 0)
(-0.0085892 1.77485 -1.18944e-20)
(-0.00947332 1.77539 1.04323e-20)
(-0.00892255 1.7754 2.47454e-21)
(-0.0114719 1.7747 -2.08779e-20)
(-0.00995048 1.77507 -3.19797e-20)
(0.236277 2.0912 6.44409e-19)
(0.0608881 2.10613 7.24402e-19)
(-0.0326213 1.73914 4.31356e-19)
(-0.0193242 2.12065 -2.03006e-20)
(0.434545 1.04176 0)
(0.190716 1.30297 4.99445e-19)
(0.284351 1.13307 -4.86142e-19)
(-0.0031514 1.37214 -4.24001e-19)
(0.174337 1.38027 0)
(0.424872 1.03465 0)
(0.283989 2.32153 5.57943e-19)
(0.468912 1.91052 1.38701e-18)
(0.49274 2.04563 -8.85495e-19)
(0.461487 1.85171 -1.8197e-19)
(0.274895 2.05675 2.76674e-19)
(0.32549 1.78631 -7.1289e-19)
(0.864532 2.40853 2.51235e-19)
(0.916901 2.54409 0)
(0.883978 2.27926 4.26619e-19)
(0.997632 2.87921 0)
(1.00244 2.84247 0)
(0.596564 2.24925 7.78646e-20)
(1.06915 3.09203 3.53876e-19)
(0.928372 2.9728 -2.55511e-19)
(0.240669 1.01311 0)
(0.265719 0.857638 -2.02873e-19)
(0.493089 0.864053 -7.68131e-19)
(0.294452 2.03915 0)
(0.433607 2.78293 -1.95614e-19)
(0.392243 2.57062 0)
(0.672476 0.676445 -3.52658e-19)
(0.71785 0.656953 4.25998e-19)
(0.739624 0.594717 3.00227e-19)
(0.61237 0.637479 5.10209e-20)
(0.677153 0.577314 -2.07239e-19)
(1.03723 2.73771 -2.68158e-19)
(1.07178 2.7332 2.11652e-19)
(0.593076 2.11834 3.12592e-19)
(0.643228 1.72286 -2.38054e-19)
(0.977561 1.85389 6.61558e-20)
(1.09877 2.40818 -3.46104e-20)
(1.10838 2.39393 -1.68484e-19)
(0.728414 1.84725 1.34791e-21)
(0.756225 1.31115 -4.5056e-20)
)
;

boundaryField
{
    wall-4
    {
        type            noSlip;
    }
    velocity-inlet-5
    {
        type            fixedValue;
        value           uniform (1 0 0);
    }
    velocity-inlet-6
    {
        type            fixedValue;
        value           uniform (0 3 0);
    }
    pressure-outlet-7
    {
        type            zeroGradient;
    }
    wall-8
    {
        type            noSlip;
    }
    frontAndBackPlanes
    {
        type            empty;
    }
}


// ************************************************************************* //
