/*--------------------------------*- C++ -*----------------------------------*\
| =========                 |                                                 |
| \\      /  F ield         | OpenFOAM: The Open Source CFD Toolbox           |
|  \\    /   O peration     | Version:  2412                                  |
|   \\  /    A nd           | Website:  www.openfoam.com                      |
|    \\/     M anipulation  |                                                 |
\*---------------------------------------------------------------------------*/
FoamFile
{
    version     2.0;
    format      ascii;
    arch        "LSB;label=32;scalar=64";
    class       volVectorField;
    location    "4";
    object      U;
}
// * * * * * * * * * * * * * * * * * * * * * * * * * * * * * * * * * * * * * //

dimensions      [0 1 -1 0 0 0 0];

internalField   nonuniform List<vector> 
38
(
(0.84374 0.0233611 0)
(0.733956 0.173842 2.10045e-19)
(0.709137 0.111983 -2.13377e-19)
(0.908515 0.0187328 0)
(0.846388 0.067357 0)
(0.768877 0.0288514 8.77576e-19)
(0.762723 0.12741 3.26018e-19)
(0.726285 0.0696522 -3.14095e-19)
(0.782733 0.0940102 0)
(0.799198 0.0603311 -1.41697e-18)
(0.749968 0.0210634 5.41854e-19)
(0.847353 0.117325 3.33738e-19)
(0.963888 0.130495 0)
(0.862661 0.144647 0)
(0.836602 0.156676 9.22115e-20)
(0.910166 0.101089 5.00395e-19)
(0.862197 0.100782 -1.89098e-19)
(0.860458 0.0651219 -6.13984e-19)
(0.835858 0.26241 4.36164e-19)
(0.926585 0.132256 -6.3762e-19)
(0.899646 0.149339 8.11185e-20)
(0.834351 0.237796 1.73696e-19)
(0.895923 0.198177 0)
(0.955529 0.159787 3.09815e-19)
(0.960271 0.0726591 0)
(0.909712 0.0697262 1.08272e-19)
(0.808684 0.286961 2.20821e-19)
(0.851749 0.271178 -5.33669e-19)
(0.865923 0.210481 0)
(0.834138 0.158285 0)
(0.798582 0.175718 0)
(0.842115 0.221128 -3.47138e-19)
(0.800583 0.21888 -2.12484e-19)
(0.903234 0.0688839 -2.25317e-19)
(0.926615 0.0836071 0)
(0.917897 0.0847289 9.78839e-20)
(0.873333 0.0585265 3.88305e-19)
(0.877382 0.0624695 -2.43226e-19)
)
;

boundaryField
{
    wall-4
    {
        type            noSlip;
    }
    velocity-inlet-5
    {
        type            fixedValue;
        value           nonuniform List<vector> 0();
    }
    velocity-inlet-6
    {
        type            fixedValue;
        value           nonuniform List<vector> 0();
    }
    pressure-outlet-7
    {
        type            zeroGradient;
    }
    wall-8
    {
        type            noSlip;
    }
    frontAndBackPlanes
    {
        type            empty;
    }
    procBoundary10to8
    {
        type            processor;
        value           nonuniform List<vector> 4((0.704147 0.139624 6.0521e-19) (0.788132 0.232034 3.56441e-19) (0.853155 0.341097 1.30009e-20) (0.788226 0.2966 0));
    }
    procBoundary10to9
    {
        type            processor;
        value           nonuniform List<vector> 3((0.927208 0.266054 -1.2973e-20) (0.918185 0.216709 3.78922e-19) (0.949746 0.161042 0));
    }
    procBoundary10to11
    {
        type            processor;
        value           nonuniform List<vector> 4((0.904348 -0.00399314 0) (0.984873 0.107347 0) (0.951802 0.0435237 0) (0.923921 0.0705275 -2.67659e-19));
    }
}


// ************************************************************************* //
