/*--------------------------------*- C++ -*----------------------------------*\
| =========                 |                                                 |
| \\      /  F ield         | OpenFOAM: The Open Source CFD Toolbox           |
|  \\    /   O peration     | Version:  2412                                  |
|   \\  /    A nd           | Website:  www.openfoam.com                      |
|    \\/     M anipulation  |                                                 |
\*---------------------------------------------------------------------------*/
FoamFile
{
    version     2.0;
    format      ascii;
    arch        "LSB;label=32;scalar=64";
    class       volScalarField;
    location    "2";
    object      p;
}
// * * * * * * * * * * * * * * * * * * * * * * * * * * * * * * * * * * * * * //

dimensions      [0 2 -2 0 0 0 0];

internalField   nonuniform List<scalar> 
38
(
-0.00102459
0.0321848
-0.00321754
0.0118908
0.0254782
0.0242055
0.0106463
0.0283782
-0.00280417
0.00465704
0.0407981
0.0132381
0.0247205
0.014316
0.00996494
0.0051449
-0.00761962
-0.000206364
-0.00890506
-0.00174302
0.00757332
-0.027143
-0.00589319
-0.00269432
0.041505
0.00608771
0.00899169
0.0253037
0.0178345
0.0236377
0.0298784
0.0513277
0.0125066
0.0246105
0.0236956
-0.0229597
-0.00921651
-0.00952933
)
;

boundaryField
{
    wall-4
    {
        type            zeroGradient;
    }
    velocity-inlet-5
    {
        type            zeroGradient;
    }
    velocity-inlet-6
    {
        type            zeroGradient;
    }
    pressure-outlet-7
    {
        type            fixedValue;
        value           uniform 0;
    }
    wall-8
    {
        type            zeroGradient;
    }
    frontAndBackPlanes
    {
        type            empty;
    }
    procBoundary16to15
    {
        type            processor;
        value           nonuniform List<scalar> 4(-0.0130719 0.00931988 0.0414203 -0.0299243);
    }
    procBoundary16to17
    {
        type            processor;
        value           nonuniform List<scalar> 7(0.0568216 0.0686923 0.000732184 0.04951 0.0239295 0.00236685 -0.0292217);
    }
}


// ************************************************************************* //
