/*--------------------------------*- C++ -*----------------------------------*\
| =========                 |                                                 |
| \\      /  F ield         | OpenFOAM: The Open Source CFD Toolbox           |
|  \\    /   O peration     | Version:  2412                                  |
|   \\  /    A nd           | Website:  www.openfoam.com                      |
|    \\/     M anipulation  |                                                 |
\*---------------------------------------------------------------------------*/
FoamFile
{
    version     2.0;
    format      ascii;
    arch        "LSB;label=32;scalar=64";
    class       volVectorField;
    location    "2";
    object      U;
}
// * * * * * * * * * * * * * * * * * * * * * * * * * * * * * * * * * * * * * //

dimensions      [0 1 -1 0 0 0 0];

internalField   nonuniform List<vector> 
38
(
(-0.016932 1.70896 -1.57562e-20)
(-0.0110494 1.69831 -2.76123e-20)
(-0.0342687 1.70596 0)
(0.0216443 1.76138 0)
(-0.030147 1.71054 1.26362e-20)
(-0.0303636 1.69929 0)
(-0.0153205 1.7418 0)
(-0.00347451 1.73005 2.72504e-20)
(0.0261882 1.75386 0)
(0.00378754 1.75687 0)
(-0.0169874 1.72669 -1.33609e-21)
(-0.0209851 1.73517 0)
(0.0204083 1.69264 0)
(-0.0021323 1.75665 0)
(-0.00605105 1.71532 0)
(-0.00723665 1.74062 0)
(0.00588483 1.78011 -1.53661e-20)
(-0.0290864 1.76493 0)
(0.0122181 1.76935 0)
(0.00956622 1.76265 0)
(-0.010668 1.76939 0)
(0.00322487 1.79051 1.95502e-20)
(0.0376045 1.80239 0)
(0.00869103 1.74331 0)
(0.0154455 1.77356 0)
(-0.00750869 1.73633 0)
(0.0201705 1.74557 0)
(0.00263037 1.73273 0)
(-0.00990185 1.77141 0)
(0.0191721 1.78247 0)
(0.0123743 1.76136 4.70008e-20)
(0.00491261 1.76857 -3.40467e-20)
(-0.0634201 1.75143 -2.93575e-21)
(0.0528731 1.72701 0)
(-0.0227117 1.73704 0)
(-0.00931913 1.76764 -3.01215e-20)
(-0.0166147 1.76724 0)
(0.00325851 1.76475 0)
)
;

boundaryField
{
    wall-4
    {
        type            noSlip;
    }
    velocity-inlet-5
    {
        type            fixedValue;
        value           nonuniform List<vector> 0();
    }
    velocity-inlet-6
    {
        type            fixedValue;
        value           nonuniform List<vector> 0();
    }
    pressure-outlet-7
    {
        type            zeroGradient;
    }
    wall-8
    {
        type            noSlip;
    }
    frontAndBackPlanes
    {
        type            empty;
    }
    procBoundary16to15
    {
        type            processor;
        value           nonuniform List<vector> 4((-0.0737624 1.73008 0) (-0.00337101 1.74211 0) (-0.00720221 1.76621 0) (0.00377344 1.76956 0));
    }
    procBoundary16to17
    {
        type            processor;
        value           nonuniform List<vector> 7((0.00911547 1.68171 -4.65032e-20) (-0.0265804 1.76761 3.49602e-20) (0.0156453 1.78202 -3.6162e-21) (0.0277776 1.75347 1.11371e-20) (0.0127803 1.75763 1.98321e-21) (0.0404058 1.72138 -2.08696e-21) (-0.00209011 1.77855 -2.92747e-20));
    }
}


// ************************************************************************* //
