/*--------------------------------*- C++ -*----------------------------------*\
| =========                 |                                                 |
| \\      /  F ield         | OpenFOAM: The Open Source CFD Toolbox           |
|  \\    /   O peration     | Version:  2412                                  |
|   \\  /    A nd           | Website:  www.openfoam.com                      |
|    \\/     M anipulation  |                                                 |
\*---------------------------------------------------------------------------*/
FoamFile
{
    version     2.0;
    format      ascii;
    arch        "LSB;label=32;scalar=64";
    class       volVectorField;
    location    "5";
    object      U;
}
// * * * * * * * * * * * * * * * * * * * * * * * * * * * * * * * * * * * * * //

dimensions      [0 1 -1 0 0 0 0];

internalField   nonuniform List<vector> 
38
(
(0.967623 0.0138315 0)
(0.96673 0.0256683 0)
(0.979346 0.0194828 0)
(0.933806 0.0227466 0)
(1.00178 0.000137287 0)
(0.994165 0.0135614 0)
(0.998226 0.0224026 -1.1163e-18)
(0.985348 0.03488 8.62257e-19)
(0.934369 -0.00553096 0)
(0.999874 0.00119097 0)
(0.999742 0.00110041 0)
(0.928051 -0.00196607 0)
(0.967559 0.000895908 0)
(0.967072 0.00715338 0)
(0.93037 -0.0112522 0)
(0.92783 -0.00460434 0)
(0.968734 0.000621381 0)
(0.962972 0.0037061 0)
(0.921652 0.00295284 0)
(0.972169 -0.0110299 0)
(0.977469 -0.00519738 0)
(0.935772 -0.0202784 0)
(0.969256 0.00908102 0)
(0.967371 -0.000639656 0)
(0.931637 0.00234762 0)
(1.01343 0.00668008 -1.56197e-21)
(1.00325 0.017435 2.54543e-21)
(1.01129 0.00911233 4.33269e-19)
(1.01647 0.0138051 -5.65568e-19)
(1.013 -0.00259986 -4.39556e-19)
(1.01494 -0.00810469 5.59678e-19)
(1.01487 -0.00585771 -2.9034e-19)
(1.00778 0.014461 3.00503e-19)
(1.0118 0.000638986 0)
(1.01635 -0.000557296 0)
(1.01363 0.0113536 0)
(1.00973 0.0108233 0)
(1.0012 0.0150978 0)
)
;

boundaryField
{
    wall-4
    {
        type            noSlip;
    }
    velocity-inlet-5
    {
        type            fixedValue;
        value           uniform (1 0 0);
    }
    velocity-inlet-6
    {
        type            fixedValue;
        value           nonuniform List<vector> 0();
    }
    pressure-outlet-7
    {
        type            zeroGradient;
    }
    wall-8
    {
        type            noSlip;
    }
    frontAndBackPlanes
    {
        type            empty;
    }
    procBoundary3to0
    {
        type            processor;
        value           nonuniform List<vector> 2((1.00091 0.0116979 3.509e-19) (1.00192 0.0136201 0));
    }
    procBoundary3to4
    {
        type            processor;
        value           nonuniform List<vector> 3((0.994867 0.0113634 -4.22828e-19) (1.00543 0.00844786 5.67492e-21) (0.99913 0.00182783 0));
    }
    procBoundary3to5
    {
        type            processor;
        value           nonuniform List<vector> 7((0.988137 0.0222971 0) (1.01962 -0.00515074 5.98212e-19) (1.00976 -0.00168248 -1.45713e-21) (1.01903 -0.00259718 0) (1.00406 0.00110655 0) (1.0162 0.00763805 -3.08758e-19) (1.01215 0.00378288 0));
    }
    procBoundary3to11
    {
        type            processor;
        value           nonuniform List<vector> 2((0.91185 0.0125952 0) (1.00237 0.0226599 4.51458e-19));
    }
}


// ************************************************************************* //
