/*--------------------------------*- C++ -*----------------------------------*\
| =========                 |                                                 |
| \\      /  F ield         | OpenFOAM: The Open Source CFD Toolbox           |
|  \\    /   O peration     | Version:  2412                                  |
|   \\  /    A nd           | Website:  www.openfoam.com                      |
|    \\/     M anipulation  |                                                 |
\*---------------------------------------------------------------------------*/
FoamFile
{
    version     2.0;
    format      ascii;
    arch        "LSB;label=32;scalar=64";
    class       volVectorField;
    location    "7";
    object      U;
}
// * * * * * * * * * * * * * * * * * * * * * * * * * * * * * * * * * * * * * //

dimensions      [0 1 -1 0 0 0 0];

internalField   nonuniform List<vector> 
39
(
(0.410061 0.631991 -3.02725e-19)
(0.43488 0.991633 1.51981e-18)
(0.451477 0.869276 3.43074e-19)
(0.250791 1.35138 7.57856e-19)
(0.346246 1.21633 -5.20913e-19)
(0.421481 1.12022 9.99963e-19)
(0.443998 1.01949 -1.54005e-18)
(0.306962 1.3163 -2.71201e-19)
(0.373835 1.23307 -6.36396e-19)
(0.407381 1.15335 1.15614e-18)
(0.305421 1.60268 -1.87271e-19)
(0.228579 1.72606 1.21468e-19)
(0.351131 1.5995 1.92414e-19)
(0.391227 1.56151 2.78074e-19)
(0.629895 1.5023 0)
(0.459846 2.06082 0)
(0.547781 2.24621 -4.62561e-19)
(0.288617 1.81631 0)
(0.222899 1.7716 0)
(0.666672 1.50065 2.60398e-19)
(0.624466 1.77334 0)
(0.628396 1.91447 0)
(0.780252 1.51244 0)
(0.734093 1.42763 -9.36884e-19)
(0.403108 1.88584 -4.96123e-19)
(0.576797 1.74456 -1.49774e-19)
(0.490134 1.961 1.25447e-19)
(0.477283 1.55361 0)
(0.597935 1.51217 0)
(0.535713 1.53119 -3.1278e-19)
(0.554187 1.68792 0)
(0.188158 1.95282 -4.38166e-19)
(0.232713 1.907 1.81759e-20)
(0.397288 1.78678 7.50771e-19)
(0.426984 1.61658 1.33306e-18)
(0.507192 1.67732 -9.00402e-19)
(0.382277 1.62664 -1.62818e-19)
(0.322299 1.70986 2.71486e-19)
(0.273006 1.63328 -3.26955e-19)
)
;

boundaryField
{
    wall-4
    {
        type            noSlip;
    }
    velocity-inlet-5
    {
        type            fixedValue;
        value           nonuniform List<vector> 0();
    }
    velocity-inlet-6
    {
        type            fixedValue;
        value           nonuniform List<vector> 0();
    }
    pressure-outlet-7
    {
        type            zeroGradient;
    }
    wall-8
    {
        type            noSlip;
    }
    frontAndBackPlanes
    {
        type            empty;
    }
    procBoundary23to18
    {
        type            processor;
        value           nonuniform List<vector> 3((0.488487 0.858107 0) (0.805449 1.53686 7.27096e-19) (0.518109 2.36752 0));
    }
    procBoundary23to21
    {
        type            processor;
        value           nonuniform List<vector> 3((0.22616 1.78632 -2.02024e-19) (0.169587 2.01701 -3.96336e-19) (0.207647 1.781 -6.59655e-20));
    }
    procBoundary23to22
    {
        type            processor;
        value           nonuniform List<vector> 4((0.299561 1.25258 -2.36909e-19) (0.287499 1.63098 0) (0.223062 1.71692 0) (0.272108 1.63699 5.09195e-19));
    }
}


// ************************************************************************* //
