/*--------------------------------*- C++ -*----------------------------------*\
| =========                 |                                                 |
| \\      /  F ield         | OpenFOAM: The Open Source CFD Toolbox           |
|  \\    /   O peration     | Version:  2412                                  |
|   \\  /    A nd           | Website:  www.openfoam.com                      |
|    \\/     M anipulation  |                                                 |
\*---------------------------------------------------------------------------*/
FoamFile
{
    version     2.0;
    format      ascii;
    arch        "LSB;label=32;scalar=64";
    class       volScalarField;
    location    "22";
    object      p;
}
// * * * * * * * * * * * * * * * * * * * * * * * * * * * * * * * * * * * * * //

dimensions      [0 2 -2 0 0 0 0];

internalField   nonuniform List<scalar> 
918
(
0.227962
0.908276
0.0107162
0.227171
-0.00303642
0.875393
-0.834008
0.403069
0.208071
-0.44646
-0.233724
0.198472
0.735837
0.502782
-1.46308
-0.0219628
0.35987
-0.71544
0.206859
-0.00487075
0.474699
0.214707
0.217729
0.208301
0.268665
0.491926
0.616425
0.00401417
-4.04154e-05
-0.0030705
0.000800543
-0.014726
-0.0141107
0.759016
0.81013
0.832797
0.176766
0.0012988
-0.685354
-0.760182
-0.747248
-0.883637
0.393448
0.398135
-0.490216
0.404826
0.419904
0.195501
0.207362
0.208236
0.209492
0.208385
0.209795
0.154882
-0.446094
-0.477726
-0.440641
-0.446274
-0.190368
-0.289345
-0.339375
-0.194701
-0.151553
0.132821
0.195492
0.192761
0.202871
0.212646
0.847827
0.81971
0.845858
0.759612
0.776106
0.713774
0.686344
0.522893
0.544424
0.488941
0.478957
-1.90719
-2.88162
-0.860513
-0.601161
0.00038382
-0.0298615
-0.0342839
0.346829
0.352628
0.3574
0.372342
0.762371
-0.708625
-0.852759
0.207056
0.205837
0.214312
0.215008
0.210997
0.210118
0.0022684
-0.00347375
-0.0144096
-0.00102282
-0.00804472
0.458592
0.452011
0.208857
0.205908
0.220686
0.242846
0.23204
-0.0241916
0.278477
0.299038
0.300089
0.475877
0.472602
0.480308
0.589766
0.553217
0.653797
0.676923
0.00868448
0.00296131
-0.0240363
-0.0166812
-0.0211199
0.173226
0.166532
0.1907
0.180162
0.182535
-0.0826901
-0.218309
0.0853492
0.108557
-0.592075
-0.659468
-0.772058
-0.783539
-0.895687
0.237356
0.384008
0.387012
-0.507741
-0.424862
-0.569168
-0.34986
-0.418877
0.186089
0.192796
0.187942
0.203107
0.197742
0.199666
0.211588
0.208665
0.210248
0.202714
0.31954
0.0879725
0.0733632
-0.575859
-0.479666
-0.562967
-0.44777
-0.441177
-0.163706
-0.148731
-0.189674
-0.17762
-0.442109
-0.393913
-0.415323
-0.111394
-0.0785723
0.12541
0.116449
0.143476
0.14939
0.187546
0.188248
0.190812
0.189095
0.636994
0.659284
0.666952
0.640759
-3.89477
-6.72241
-0.266715
-0.123693
0.000943771
0.00327113
0.00266643
0.00629568
0.00159573
-0.000610936
-0.120721
-0.0984488
-0.0487424
-0.0646542
0.334077
0.336721
0.67671
0.669143
0.662911
0.616189
0.195212
0.197323
0.202725
0.198598
-0.0451251
-0.0130831
-0.0275224
0.420471
0.439167
0.435401
-0.0593488
-0.145613
0.0220271
0.0492035
0.32002
0.303507
0.320411
0.362682
0.400663
0.684374
0.702794
0.700964
0.709569
0.753611
0.770026
0.735371
0.154126
0.163824
0.159004
0.194249
0.191725
0.19293
0.187808
0.189602
0.186894
-0.372178
-0.759576
0.17168
0.190154
0.151605
0.159349
0.324132
0.391444
0.368939
0.376346
0.380095
-0.285336
-0.349005
0.00142851
-0.0431937
0.0745875
0.105816
0.0897061
0.608125
0.568767
0.618727
0.591987
0.553575
0.57881
-0.711441
-2.24203
-1.34344
0.240715
0.0463307
0.137408
-0.157778
-0.181808
-0.158325
0.652839
0.731852
0.361442
0.520983
0.539815
0.442298
0.473045
0.526395
0.451778
0.486116
0.521892
0.503235
0.193664
0.175027
0.166383
0.455525
0.512677
-0.172338
-0.2233
-0.275869
-0.13716
-0.076056
-0.108645
0.702991
0.578277
0.659838
0.2057
0.206373
0.0081337
0.0102933
0.21036
0.210368
0.00531003
-0.00331342
0.118752
-1.17517
-0.183047
0.198607
0.189363
0.205988
-0.41156
0.094618
-0.300401
-0.247339
-0.0921475
0.196117
0.142154
0.109
0.00673735
-0.00679289
-0.0169762
-0.52319
0.203333
0.201621
0.205512
0.206522
0.207188
0.00548482
0.00484285
0.00413896
-0.00834355
-0.000607943
-0.00138068
0.171442
0.186965
-0.480604
0.20559
0.207794
0.207544
0.200456
0.206263
0.204443
-0.00285606
-0.00394167
-0.0171411
-0.0728202
0.042306
0.375291
0.481276
0.331052
0.101519
-0.143119
0.270574
0.339494
0.236972
0.403262
0.371609
0.392361
-0.1231
-0.269372
-0.113077
-0.167694
0.19665
0.195356
0.187516
0.1847
0.201071
0.199226
0.203509
0.200377
0.203352
0.20488
-0.393918
-0.424309
-0.406227
-0.46434
0.0483135
0.297766
-0.0133474
0.0631847
-0.135916
-0.269208
-0.201998
-0.384471
-0.413599
-0.554056
-0.147603
-0.232461
-0.272365
-0.028108
-0.157004
-0.377305
-0.230465
-0.286971
0.190504
0.188512
0.19642
0.20315
0.150027
0.152149
0.124596
0.141276
0.128264
0.0741095
0.107081
0.08474
0.00562789
0.00913825
0.00449591
-0.00613228
-0.0198124
0.00227814
0.00758434
0.0121792
-0.00214868
-0.00195811
-0.0204315
-0.0153315
-0.484601
-0.597238
0.651609
0.618128
-0.211065
0.192521
0.198907
0.195711
0.200718
0.20363
0.204371
0.202141
0.198806
0.187829
0.189805
0.185551
0.186323
-0.423895
-0.559546
-0.380893
-0.445781
-0.192466
0.310099
0.0549121
-0.00406114
-0.00821181
0.202593
0.600575
0.407697
0.432743
0.458571
-0.673594
-0.270027
-0.603039
0.0167697
-0.164761
0.371748
0.424985
0.449085
0.394373
0.343189
-0.44584
0.206869
-0.364517
-0.321788
-0.133396
-0.234336
0.41869
0.355444
0.361967
0.382606
0.405094
0.3608
0.338892
0.336047
0.374002
0.378379
0.175889
-0.0407373
-0.0864063
-0.122406
0.342054
0.215248
0.268902
0.187857
0.1915
0.194324
0.192855
0.176187
0.183124
0.179078
0.184614
0.187294
0.196734
0.196857
0.192458
0.194609
-0.424779
-0.43031
-0.383001
-0.447419
-0.451242
-0.493889
-0.407606
-0.203095
-0.233746
-0.0762937
0.0277039
-0.249951
-0.390509
-0.360254
-0.333508
-0.124405
-0.101358
-0.331785
-0.139743
-0.176623
-0.225968
-0.0209386
-0.023797
-0.455821
-0.545037
-0.525432
-0.454202
-0.248693
-0.206109
-0.17532
-0.176641
-0.315055
-0.162367
-0.100109
-0.489157
-0.559719
-0.548608
-0.455582
2.04759e-05
-0.0071457
-0.0198977
-0.0688237
-0.0465688
-0.0714628
0.186253
0.18667
0.186817
0.199788
0.211663
0.226913
0.192724
0.169112
0.162468
0.164468
0.140388
0.14909
0.145278
0.157572
0.176006
0.183006
0.182648
0.184643
0.169268
0.169797
0.159395
0.16304
0.14111
0.124228
0.11404
0.00202345
0.0036284
0.00102769
-0.00630474
0.00809374
0.00382786
-0.0519559
-0.0160843
-0.0280335
-0.0235239
-0.0707496
0.011244
0.00515752
-0.404921
-0.33149
-0.511026
-0.538936
-0.609321
0.560397
0.672082
0.506141
0.284655
0.284206
0.510926
0.608092
0.262702
0.432699
0.462902
0.199452
0.470211
0.197476
0.196771
0.19421
0.193789
0.195165
-0.336481
-0.241176
-0.226998
-0.176114
-0.0631819
0.0509969
-0.0407553
-0.154606
-0.0145271
-0.00455047
0.304851
0.320715
0.264543
0.290311
0.290501
0.116362
0.191666
0.245314
0.20213
0.245012
0.266859
0.228296
0.258281
0.205321
0.164477
0.163627
0.111077
0.130955
0.108922
0.0919503
0.187424
0.166699
0.175728
0.169021
0.188111
0.215578
0.21089
0.234639
0.247398
0.1738
0.136739
0.145228
0.171663
0.135683
0.148104
0.162109
-0.129626
-0.227264
-0.138088
-0.431454
-0.338629
-0.354532
-0.400128
-0.364112
-0.0770324
-0.781579
-0.747285
-1.38548
0.141119
0.629074
0.37398
0.34731
0.403261
0.3807
0.384191
0.415835
0.421323
0.332264
0.348209
0.353379
0.301419
0.326392
0.358046
0.353549
0.186365
0.0675744
0.0568362
0.0210075
-0.0988035
-0.0691166
0.131787
0.0559471
-0.0151561
-0.00940867
0.151589
0.0450838
0.107158
0.14516
0.0781925
0.0374468
0.232291
0.300012
0.289984
0.264029
0.179451
0.191134
0.216464
0.252573
0.277823
0.312148
0.183883
0.189748
0.191038
0.188739
0.186185
0.188828
0.188777
0.191351
0.192297
0.194988
0.194029
-0.470304
-0.513463
-0.446998
-0.458295
-0.400034
-0.375401
-0.282002
-0.332006
-0.488297
-0.450976
-0.426437
-0.434061
-0.461819
-0.48533
-0.206329
-0.195141
-0.180962
-0.239863
-0.0508839
0.0849267
0.142119
0.0242873
-0.0745652
-0.0397163
-0.0168315
-0.466843
-0.386007
-0.52101
-0.364537
-0.395319
-0.278861
-0.216831
-0.232875
-0.322835
-0.342473
-0.151846
-0.0271387
-0.0526246
-0.0752546
-0.0556777
-0.0346224
0.172625
0.167584
0.166025
0.161579
0.160741
0.171893
0.176405
0.178833
0.184171
0.185151
0.17651
0.18067
0.183863
-0.0188846
0.00641263
0.00818635
-0.0380366
-0.00816544
0.00139257
-0.0145849
-0.207301
-0.284862
-0.285355
-0.323594
-0.453831
-0.39592
0.136802
0.118109
0.142288
0.348291
0.208577
0.123388
0.196966
0.307841
-0.0546206
0.131541
-0.0321097
0.534588
0.423281
0.563154
0.206727
-0.1048
0.0409384
0.0956275
-0.102
-0.0273781
-0.00381523
-0.114936
-0.0814494
-0.0536761
0.0464055
-0.0797759
-0.111328
-0.356769
-0.173999
-0.0397475
-0.0598275
0.0679266
0.129288
-0.0947876
-0.175044
-0.211871
0.294341
0.313887
0.330493
0.302451
0.326214
0.250425
0.241981
0.260612
0.271466
0.264506
-1.11663
-0.827593
-1.76825
-1.07767
-0.631947
0.170745
0.127011
0.421724
0.312626
0.393286
0.374555
0.333525
0.29472
0.304994
0.34315
0.0442505
0.150882
0.125174
0.134353
0.0391344
-0.0267326
0.267047
0.261551
0.297177
0.32096
0.290393
0.322871
0.182275
0.181924
0.180938
0.17825
0.176636
0.17855
-0.324731
-0.400386
-0.261702
-0.279357
-0.32815
-0.381906
-0.0246201
-0.0515336
-0.0471682
-0.0383027
-0.000228425
-0.0271412
-0.181768
-0.236191
-0.303635
-0.274884
-0.337868
-0.404629
-0.426033
-0.31986
-0.228894
-0.237556
0.0684578
0.316914
0.145294
0.309645
0.14167
0.201853
0.141609
0.133291
0.168494
0.0361333
0.113006
-0.14236
-0.640423
-0.548452
0.43114
0.452652
0.233632
0.0386942
-0.184432
0.0141588
0.215121
0.15421
0.194334
0.26106
0.25408
-0.349985
-0.274299
-0.0417937
0.185533
-0.118976
-0.125941
-0.130111
0.0336717
-0.033565
)
;

boundaryField
{
    wall-4
    {
        type            zeroGradient;
    }
    velocity-inlet-5
    {
        type            zeroGradient;
    }
    velocity-inlet-6
    {
        type            zeroGradient;
    }
    pressure-outlet-7
    {
        type            fixedValue;
        value           uniform 0;
    }
    wall-8
    {
        type            zeroGradient;
    }
    frontAndBackPlanes
    {
        type            empty;
    }
}


// ************************************************************************* //
