/*--------------------------------*- C++ -*----------------------------------*\
| =========                 |                                                 |
| \\      /  F ield         | OpenFOAM: The Open Source CFD Toolbox           |
|  \\    /   O peration     | Version:  2412                                  |
|   \\  /    A nd           | Website:  www.openfoam.com                      |
|    \\/     M anipulation  |                                                 |
\*---------------------------------------------------------------------------*/
FoamFile
{
    version     2.0;
    format      ascii;
    arch        "LSB;label=32;scalar=64";
    class       surfaceScalarField;
    location    "22";
    object      phi;
}
// * * * * * * * * * * * * * * * * * * * * * * * * * * * * * * * * * * * * * //

dimensions      [0 3 -1 0 0 0 0];

oriented        oriented;

internalField   nonuniform List<scalar> 
1300
(
3.75095
5.62643
-5.89158
3.75095
-5.81684
5.62643
-4.53395
4.53395
-1.20018
1.20018
1.87662
1.87434
-2.87164
2.87164
-3.0627
3.0627
-2.61311
2.61311
-5.24649
5.24649
-5.0686
5.0686
4.68272
-4.68272
-4.68987
4.68987
-1.65645
1.65645
-3.89569
3.89569
3.17039
-3.17039
-4.42683
4.42683
-0.40676
0.40676
-0.553452
4.30441
3.1975
3.1975
-2.3084
2.3084
-4.85598
4.85598
6.21834
-6.21834
8.90829
-8.90829
-3.0167
-3.43704
1.34767
-8.33403
-4.46917
-4.46917
-8.44041
8.44041
-2.81398
2.81245
2.94333
-2.94333
-1.76679
1.76679
-4.46549
-0.0684565
-4.46549
4.53743
-0.00348372
4.53743
-1.33612
0.135937
-1.33612
3.99595
-3.99595
1.03941
0.160771
1.03941
3.0643
-3.0643
-1.87696
3.75358
1.87399
-1.87167
6.17608
-1.87928
3.75362
-5.87686
5.87686
-3.13604
0.264399
-3.13604
2.59491
0.276728
2.59491
-5.40892
5.40892
-2.61995
-0.442748
-2.61995
3.5055
-0.4428
3.5055
2.85787
-2.85787
-2.66379
0.050676
-2.66379
2.56066
0.0524578
2.56066
0.353564
5.27287
-5.97999
8.79245
-5.27287
0.0263714
5.20852
0.0379771
5.20852
-5.10614
0.0375384
-5.10614
5.00962
0.0589774
5.00962
4.77738
-0.0946587
4.77738
-4.79537
0.112643
-4.79537
-3.31881
-3.56225
-4.77488
0.0850101
-4.77488
-1.66111
0.00466557
-1.66111
1.64225
0.0141962
1.64225
-3.49862
3.49862
-4.30627
0.410584
-4.30627
3.12503
0.0453531
3.12503
1.86851
1.88244
5.61947
-5.61947
2.44908
-4.30385
-0.12298
-4.30385
-4.55137
-4.35692
4.55137
-0.124538
-0.687685
0.280925
-0.687685
3.15932
0.038185
3.15932
2.47503
0.0856311
-2.47503
0.166624
3.31145
-3.31145
1.68313
0.625275
1.68313
-5.56915
5.56915
4.9505
0.0591275
-4.9505
0.0945142
6.15739
0.0609458
6.15739
-6.19958
-0.018759
-6.19958
3.29208
-6.72913
-3.49276
4.57169
0.118176
-4.57169
0.102524
2.91208
0.0312465
2.91208
-2.92385
2.92385
-2.98154
0.0382175
-2.98154
-2.18096
0.414168
-2.18096
1.44933
0.317462
1.44933
-4.32259
-0.142902
-4.32259
-4.46486
0.158585
4.46486
0.072575
0.96578
-0.96578
-1.47247
0.136352
-1.47247
-4.14717
-0.175419
4.14717
-0.151219
-3.88474
-0.111218
-3.88474
-3.02263
0.0410902
3.02263
0.0416691
3.11214
0.0471737
-3.11214
0.0478407
-1.8709
3.75334
-1.88005
3.75404
-5.46561
-0.411243
-5.46561
6.18493
-0.308076
6.18493
3.51324
0.382447
-3.51324
0.377205
2.4035
0.191415
2.4035
-5.84067
0.431755
-5.84067
5.06503
0.34389
5.06503
2.3844
0.0190967
-2.3844
-0.235549
3.85327
-0.347774
3.85327
2.90205
-0.0441864
2.90205
-2.84555
-0.0123194
-2.84555
2.80016
-2.80016
2.72807
0.0720827
-2.72807
0.0642816
-11.1328
11.1141
-0.0351941
-11.0976
5.17332
5.17332
4.20619
0.571193
4.20619
-5.00628
0.210915
-5.00628
3.26047
-6.75323
3.53514
-6.85396
3.53092
-11.865
3.37237
-6.93463
4.90288
-4.90288
4.83752
0.0653613
-4.83752
0.0626356
-1.68536
0.0242433
-1.68536
-2.88448
-0.614133
-2.88448
4.15617
-0.657557
4.15617
-3.03129
3.03129
-3.07927
0.0479816
3.07927
0.0457595
4.12412
-0.270852
-4.12412
-0.179731
0.873744
0.165663
-0.873744
0.186059
3.52501
-0.213557
3.52501
-3.11353
-0.197922
-3.11353
-1.68991
0.00455033
1.68991
-0.00678008
-5.81748
0.248329
-5.81748
-11.1906
0.0930044
-11.1526
-6.10658
-6.10658
2.33383
11.1263
-2.87409
0.0285367
2.87409
0.0379934
2.97934
0.0519508
-2.97934
0.0554951
-2.86562
0.065461
2.86562
0.0582296
-2.56699
0.386028
-2.56699
-1.0335
1.0335
-1.21967
0.186168
1.21967
0.229662
1.2162
-0.250424
1.2162
1.58196
0.0602944
-1.58196
0.109489
-3.79497
-0.0897691
-3.79497
6.22179
-0.0368587
6.22179
-2.98487
-0.12866
2.98487
-0.0828109
-0.0332611
11.1473
-5.14006
0.0339234
5.14006
-11.2083
11.2422
-3.24732
0.680329
3.24732
0.958873
5.29324
0.275904
-5.29324
0.286962
4.98907
0.0759585
-4.98907
0.0861918
-2.38487
-0.499612
-2.38487
-4.87474
-0.59087
4.87474
-0.71857
-11.476
-0.202646
11.6786
-11.417
6.02012
0.137272
-6.02012
11.3795
-0.926241
-0.039539
0.926241
0.107258
1.51817
-0.30197
1.51817
3.70248
-0.177479
-3.70248
-0.0924824
-6.16054
0.319872
6.16054
0.0612459
-1.93427
-0.450605
1.93427
-0.416093
-4.26651
4.30469
1.90957
-3.20351
-3.52562
-7.56042
1.85244
1.9009
4.30152
-7.39072
-4.47423
-7.2882
7.27178
-6.98482
-9.29999
9.20533
7.5248
-7.63602
-5.78524
5.831
6.48168
-6.44001
1.87842
1.87516
7.69748
-7.43308
-15.5938
15.1826
6.34393
-6.78668
16.1367
-15.7049
-16.3155
16.3915
-5.76548
5.81616
-6.65348
6.64116
-6.84563
6.76282
-3.10831
-3.74565
9.8998
-9.81479
11.0958
-11.2188
-8.43955
8.85013
3.3825
0.922188
3.42968
-1.88238
3.7608
-1.87124
3.78081
3.55391
-6.66221
3.19932
-6.72494
5.92193
5.1739
-5.7974
-1.76303
-5.90987
5.94112
-5.82275
5.88098
8.9185
-8.98696
-1.88561
3.76077
-1.86843
3.76934
-3.42523
-2.36001
3.37988
0.921639
5.947
3.9528
-6.06517
-1.22303
-7.73521
7.55773
-8.01693
7.81901
-0.452071
5.82374
-5.37167
4.40391
-1.55273
7.37648
5.71905
5.92997
5.86753
-5.59163
1.11729
-6.48896
-6.39445
-2.55853
2.69488
2.54508
-2.38431
5.91864
1.60616
5.76742
-5.50599
-2.13002
-5.59576
3.82087
2.01013
3.86886
4.07696
2.40472
4.11805
3.03093
-3.03584
0.00490774
-3.0559
6.08683
0.724931
-5.41591
-4.49427
4.37391
3.32358
4.65063
-5.43714
-1.99595
-5.05993
-9.44987
-6.14394
-10.0407
10.0731
5.10951
9.76498
-12.0702
12.1314
4.85136
1.49256
4.40856
-3.73476
-3.05191
-3.97031
12.69
-1.5546
-11.1354
-10.0615
-6.25406
9.71757
6.4191
9.35795
7.03352
9.44414
3.69405
8.99599
-10.1131
3.85909
-3.86814
-1.89734
-3.80386
3.74044
2.07572
3.7929
-4.17626
-2.47722
-4.14772
-4.20681
-2.63882
4.251
2.39016
-4.30475
-3.71218
4.43341
2.32941
3.32864
-7.80287
3.60598
-7.35164
-7.12414
-2.69065
-7.0615
4.44902
2.22905
-6.67807
-2.21319
10.7012
-5.52726
8.93813
-6.51148
-4.70733
-6.69121
-6.81222
-1.62733
-6.65363
-8.83604
8.33643
-9.13616
8.4786
12.7141
-5.6951
-7.01898
-3.96792
-2.47209
3.92008
-0.490401
-3.7116
3.71651
0.0491927
3.83
4.75219
4.26179
-3.88552
-1.93723
-3.83003
3.83113
2.04985
3.89659
6.75269
2.16581
6.74921
-6.39619
-2.59077
-6.53909
9.10012
-8.68595
2.96817
-2.96362
5.22838
2.59062
-5.01483
-2.72038
6.05764
-3.02994
-3.0277
-12.2182
10.5882
1.63005
-4.84177
-0.437857
-0.0310974
-5.51204
-3.78795
5.39939
0.530574
11.1188
7.33081
-5.51302
5.76135
6.1656
6.22472
-0.169722
5.85674
-5.17641
5.30248
-2.33365
-2.96883
5.26251
-5.43793
-1.27658
-5.23957
3.96299
0.329496
1.85164
-1.57072
-2.05312
-0.505407
-1.94363
1.555
0.990083
1.72066
0.987966
1.70691
-2.93237
0.541462
2.39091
-1.94441
-1.84285
-3.59603
-1.03708
4.63311
5.50814
2.04959
-5.41566
-0.180109
2.72671
-2.71251
-0.722015
-2.87402
2.15914
-2.88115
-3.51148
-1.92258
5.43406
-3.36904
-0.460988
3.31709
0.551769
-3.8224
-2.08747
3.78418
0.333866
-3.12407
6.19332
-3.06925
-5.0613
2.52918
3.55765
4.53931
-4.78936
2.44526
2.3441
-1.23171
3.33059
1.32005
3.522
-7.00536
5.00941
5.70943
3.1407
-6.09188
1.03195
-5.97341
8.4767
-7.26474
-1.21196
3.81639
4.66031
7.17482
5.53926
-5.76683
12.9416
-1.04631
-6.21844
7.01972
-3.87902
4.77283
-8.65184
-10.3121
4.09365
-9.57219
11.9446
-2.3724
-3.54844
-8.52174
13.1206
-1.20638
-11.9142
8.5586
-5.60871
-3.2624
8.8711
-7.1633
6.31431
-2.32571
-3.9886
-10.3951
-5.30982
10.0752
2.0562
-9.19935
13.0584
-0.203359
4.61205
-0.203484
4.26427
3.89221
-6.33668
2.44446
3.27109
-5.5968
1.54713
-7.8838
-5.61375
10.1957
-4.58193
-8.3044
-8.1243
-0.180098
1.38538
11.6731
-8.4189
5.6763
2.74261
3.30686
0.589735
-3.37894
-0.424922
0.340926
4.51064
-4.85157
4.13382
4.21945
3.402
1.10864
3.81856
2.12256
-3.85656
-0.291165
-4.11744
1.47862
-1.72728
-3.64742
5.12604
-4.07111
0.423698
-2.7207
-3.56023
6.28093
-4.61805
3.04503
3.14829
5.09488
-4.95023
1.39
-2.44187
-2.50836
2.68111
-4.40839
1.95774
3.1683
4.28715
0.574972
5.4019
4.79378
-7.63095
0.279319
8.74658
-7.52355
2.47737
6.96677
-8.15367
0.0293681
-7.03213
0.667594
-6.19486
-6.01048
5.1247
-6.75203
-3.52714
6.17369
0.575518
-6.24627
-0.407363
-5.97424
-2.8618
-6.42485
-3.05224
-6.08392
-8.81907
-1.63838
-7.18069
6.69805
-6.62977
-3.41097
7.34834
1.13026
-7.35831
7.31878
-7.42739
7.12542
0.0947586
3.62175
4.35655
1.88446
-2.39004
4.2745
-5.05793
7.22374
-8.44186
3.38393
3.93001
-6.52078
-4.51186
5.03229
4.06783
5.34975
8.95456
-10.5817
1.62709
-10.8745
12.1615
-1.28701
-16.6474
5.77294
-7.69286
2.70486
0.263312
2.7291
0.677044
2.41301
-3.09006
-2.28657
-2.29335
-2.27699
-3.33076
5.60775
1.12068
-3.33128
2.21061
-3.45936
4.58004
-0.0777883
-3.2535
5.23265
-2.81963
5.49596
-3.53715
1.95881
3.238
5.53048
-2.29248
4.2666
-1.67598
1.78454
-4.07702
-1.54622
-3.01868
5.0944
-3.26225
3.68595
-0.242834
3.92878
-4.01394
0.984007
-0.611947
3.60751
3.77413
4.20687
-3.09822
2.89785
-4.57383
-1.17917
-3.99886
-0.830561
-0.332087
-3.72787
4.05996
6.07746
-6.40955
-5.29866
9.61469
-4.31603
7.74185
-5.42851
-2.31334
-4.28656
-4.39939
3.90054
1.9562
9.69805
0.205279
-5.63379
-4.97113
-4.01226
3.24098
2.0615
-2.05537
3.68543
2.08647
-0.234827
0.565642
1.15502
1.90724
-1.34159
0.229637
1.6776
-1.34108
2.00634
0.720363
-2.06664
0.123006
-1.32506
3.4842
1.06585
-2.05593
0.714339
1.06972
-3.40337
4.68916
-2.41531
-2.27385
5.75888
1.15216
-3.56747
4.08741
-3.75792
2.27208
-3.30916
-1.29539
-5.0533
-3.44714
-2.4605
4.67111
-3.14725
5.19684
1.15964
-5.01673
6.17636
-3.54044
1.61786
-3.01966
3.74003
-1.0396
-1.98006
2.75366
2.6804
-2.90359
0.0295692
-0.149923
2.30035
-2.45027
-0.580804
-2.52521
-4.57262
4.90649
-2.1066
4.55186
2.1679
-1.91289
6.46475
1.81343
-3.72632
-3.24787
-3.70886
-1.38222
3.15709
-0.821371
-3.14894
-4.80997
3.12984
0.392159
-6.94997
7.14744
-0.197474
-3.62639
-1.38302
5.19941
-5.812
0.215199
-4.26487
2.88257
4.20261
4.59477
-11.4553
-0.458919
-6.34582
1.05288
-7.39869
5.71319
-3.65784
7.75149
-10.4141
7.0031
-9.28381
6.53953
-0.859164
7.18019
-4.73573
3.95525
-9.26507
-7.20887
5.50332
-4.01076
5.29984
-4.65699
9.95682
-4.86035
6.80227
3.15456
-1.84804
-4.84316
-5.95253
4.10448
0.84974
5.11401
4.95008
-2.82752
4.65891
2.2267
-4.66857
-2.18169
-6.53528
1.86672
-3.38699
-1.91329
3.78001
3.18159
3.77132
1.27165
-3.3464
7.67822
-7.85832
-3.09629
-2.91419
6.35191
-2.24742
4.55028
-7.46447
-1.64457
4.86867
-0.7984
-4.07027
0.826433
-4.35358
1.60628
-5.95985
5.14575
-5.55312
2.18039
-9.87325
-5.17792
-5.07067
-2.23369
-5.1937
-7.64759
5.4139
-1.87465
5.44412
-8.66919
7.87079
-3.4923
8.9062
-5.37767
-1.04718
5.79376
1.33166
10.2379
0.115518
-4.62737
-1.81469
3.94181
-2.12712
1.42629
-3.61235
0.329458
2.44579
3.31309
-6.40878
-0.112003
-4.73938
-3.91644
7.98427
5.69825
11.7757
1.19406
9.1992
-1.21493
10.3933
4.13482
4.36449
-2.97481
4.6019
1.08515
4.46908
-0.858938
2.81775
1.87016
1.87483
0.837682
2.30387
1.47026
3.28788
0.197818
-2.09554
4.65745
-8.66971
-0.976334
-8.09852
1.10681
5.74477
-4.63795
3.17165
-1.11015
1.04453
0.147205
-1.77557
1.62837
-2.82163
-2.0104
-0.332802
-1.64229
2.35663
1.84191
-2.02382
-0.797802
0.312869
-3.76001
2.99629
-2.96672
-0.286326
5.89004
-2.69835
0.248078
-1.08049
-2.27713
-2.78254
2.65953
6.17568
0.289069
3.10643
5.19555
3.10808
0.280559
3.59508
-5.96748
-4.28872
-6.4264
-0.713214
4.4862
3.50651
8.16654
6.66107
4.41365
-3.05082
-10.9091
6.5394
-1.9375
5.2524
-1.18213
-4.77772
4.97813
2.24561
-5.55365
0.000530049
-4.77719
-6.7147
-0.529202
8.39999
-9.70865
8.66147
5.79968
1.38101
-4.38066
-0.690002
4.1945
0.16999
10.5632
-1.12967
-6.89651
8.02617
-4.6151
3.63877
0.892115
2.79331
2.52048
1.41034
-5.48617
-10.1241
-1.87144
-1.53194
-4.14528
0.487829
-2.32974
6.28018
-2.64141
3.96684
5.38476
6.42929
-2.18929
-4.22026
6.50532
-2.53849
3.8908
)
;

boundaryField
{
    wall-4
    {
        type            calculated;
        value           uniform 0;
    }
    velocity-inlet-5
    {
        type            calculated;
        value           uniform -3.75095;
    }
    velocity-inlet-6
    {
        type            calculated;
        value           uniform -5.62643;
    }
    pressure-outlet-7
    {
        type            calculated;
        value           nonuniform List<scalar> 8(5.89158 5.81684 6.45375 6.98636 6.88107 6.78484 6.79561 6.90329);
    }
    wall-8
    {
        type            calculated;
        value           uniform 0;
    }
    frontAndBackPlanes
    {
        type            empty;
    }
}


// ************************************************************************* //
