/*--------------------------------*- C++ -*----------------------------------*\
| =========                 |                                                 |
| \\      /  F ield         | OpenFOAM: The Open Source CFD Toolbox           |
|  \\    /   O peration     | Version:  2412                                  |
|   \\  /    A nd           | Website:  www.openfoam.com                      |
|    \\/     M anipulation  |                                                 |
\*---------------------------------------------------------------------------*/
FoamFile
{
    version     2.0;
    format      ascii;
    arch        "LSB;label=32;scalar=64";
    class       volVectorField;
    location    "22";
    object      U;
}
// * * * * * * * * * * * * * * * * * * * * * * * * * * * * * * * * * * * * * //

dimensions      [0 1 -1 0 0 0 0];

internalField   nonuniform List<vector> 
918
(
(0.985154 -0.000528288 0)
(0.00500542 2.96625 0)
(-0.0168745 1.55764 0)
(0.979695 0.00216497 0)
(-0.00215604 1.54721 1.28736e-20)
(-0.00703422 2.94879 -1.85847e-18)
(0.853666 1.19671 7.34084e-19)
(0.403848 0.182948 -8.86912e-21)
(0.999905 -0.000308502 0)
(0.0708132 0.831505 0)
(-0.0597036 0.886186 0)
(0.752705 -0.0118929 0)
(0.0110959 2.93039 0)
(0.00162547 2.79484 0)
(-0.017726 3.16705 1.08794e-18)
(-0.000920302 1.42755 2.43192e-20)
(0.520194 0.0797216 5.5758e-19)
(0.19184 1.20652 6.43766e-19)
(0.963055 0.00513114 0)
(0.00262909 1.2678 0)
(0.13151 0.24012 -4.70581e-19)
(1.00207 -0.00499019 0)
(1.00022 -0.00976572 0)
(0.97574 -0.00645283 0)
(0.663789 -0.038733 0)
(0.0173252 2.63327 0)
(-0.0151368 2.91018 6.41102e-19)
(-0.0262601 1.57776 0)
(-0.0347962 1.72253 0)
(-0.0268257 1.56967 0)
(-0.00445137 1.86358 0)
(0.00543242 1.57347 -1.01811e-20)
(-0.000812263 1.43998 0)
(-0.0206265 2.98759 -6.49543e-23)
(-0.0167024 3.0053 1.4446e-18)
(0.00210301 3.00021 0)
(0.870782 -0.0093335 0)
(0.396026 0.933801 -3.52755e-20)
(0.832017 1.21538 -1.02658e-18)
(0.978445 1.05011 9.62897e-19)
(0.699296 1.31156 -1.70349e-19)
(0.697557 1.30128 9.55662e-19)
(0.440549 0.273896 8.6533e-21)
(0.434898 0.169553 0)
(1.16217 0.561031 0)
(0.405582 0.282592 4.05156e-20)
(0.361205 0.182585 -4.20468e-20)
(0.919538 -0.007408 0)
(1.00027 8.58386e-05 0)
(0.999909 0.000321583 0)
(1.00356 -0.00779554 0)
(1.00095 -0.00103512 0)
(1.00017 1.38507e-06 0)
(0.0674533 1.81134 -2.91196e-19)
(0.0210335 0.968091 0)
(0.0899299 0.924739 0)
(0.0256914 0.886546 0)
(0.0128792 0.741715 0)
(-0.0469743 1.58549 0)
(-0.0661657 0.927448 0)
(-0.0389075 0.748082 0)
(-0.0568875 1.06862 0)
(-0.0458956 1.02127 0)
(0.836668 -0.00627592 0)
(0.857431 0.0128733 0)
(0.769675 -0.000866422 0)
(0.848481 0.0168401 0)
(0.739694 -0.0146777 0)
(0.0146992 3.0004 6.80126e-19)
(0.0115193 3.00789 0)
(0.00613483 3.00284 0)
(0.0135335 2.99732 7.57869e-24)
(0.00799881 2.95847 -1.01083e-18)
(0.0144894 2.98211 0)
(0.0107984 2.90362 0)
(0.0248602 2.93064 1.35389e-24)
(0.00423626 2.82505 0)
(0.0311449 2.91568 0)
(-0.00616891 2.74389 0)
(0.311239 3.56733 0)
(-0.132515 3.64954 0)
(0.1411 3.25793 1.01249e-18)
(-0.0112111 2.99032 0)
(-0.0307004 1.83516 0)
(0.0153478 1.6097 -2.39894e-20)
(0.00135302 1.42432 3.78777e-20)
(0.578386 0.154019 -1.91895e-19)
(0.519132 0.0504133 -1.86382e-19)
(0.565229 0.177959 -5.77955e-19)
(0.513202 0.107687 -3.89417e-19)
(0.211418 0.898582 0)
(0.274258 1.35294 -6.68548e-19)
(0.393804 1.31317 1.09955e-18)
(0.98762 0.00853186 0)
(0.942218 0.00595711 0)
(1.00029 0.000572405 0)
(1.00287 0.00929118 0)
(1.00303 0.00848767 -1.07021e-18)
(0.991939 0.0096596 8.08172e-19)
(-0.0142974 1.42747 0)
(-0.0122018 1.24614 0)
(-0.0344107 1.58465 0)
(-0.0201784 1.48319 0)
(-0.000631049 1.30721 0)
(0.193985 0.249958 1.45059e-19)
(0.240182 0.226874 0)
(0.993549 -0.00829291 0)
(0.95438 -0.00639689 0)
(0.816696 0.0255237 0)
(0.783346 0.0372635 0)
(0.716543 -0.0297556 0)
(0.98533 -0.00358839 0)
(0.724605 0.0524673 0)
(0.572644 -0.0182296 7.43427e-19)
(-0.0360585 2.86505 3.24544e-19)
(0.0431459 2.9079 0)
(0.0562937 2.88357 0)
(-0.00557586 2.69713 0)
(-0.013013 2.98539 5.8818e-19)
(-0.0181879 2.89554 0)
(-0.0153064 2.98815 -1.86298e-18)
(-0.013429 2.92525 6.43647e-19)
(-0.0352895 1.80717 0)
(-0.030197 1.80857 0)
(0.00713833 1.58639 6.16515e-22)
(0.00763094 1.56305 0)
(-0.00558783 1.43572 0)
(0.937069 -0.00625301 0)
(0.855739 -0.00931238 0)
(0.864825 0.00843958 0)
(0.94863 -0.00750021 0)
(0.883165 -0.00865504 0)
(0.509933 1.12941 3.31461e-20)
(0.561678 1.18428 0)
(0.355494 0.872106 3.8207e-21)
(0.298685 0.733509 0)
(0.93816 1.08691 -2.78297e-19)
(1.0504 0.884635 5.70165e-19)
(0.392079 1.40384 0)
(0.551517 1.37943 0)
(0.553452 1.33543 0)
(0.0975254 0.153735 -1.30006e-19)
(0.484238 0.257548 0)
(0.467571 0.156465 1.11185e-19)
(1.02053 0.938338 0)
(1.08682 0.782009 0)
(1.11253 0.724623 -4.99557e-19)
(1.14227 0.620394 0)
(1.19344 0.403965 5.79209e-20)
(0.957153 -0.00893822 0)
(0.962196 -0.0102076 0)
(0.901026 -0.00807784 0)
(0.984179 -0.00914224 0)
(0.974513 -0.00940163 0)
(0.936886 -0.00627905 0)
(1.00019 0.00233705 0)
(1.00085 0.00131286 0)
(0.999931 0.000862141 0)
(0.0289242 2.01784 1.77098e-19)
(0.131251 1.71042 0)
(0.00334618 2.10422 7.98014e-20)
(0.0186864 1.87688 -1.11648e-19)
(0.134886 1.19894 -5.33521e-19)
(0.0671154 1.05502 0)
(0.100257 1.05792 0)
(0.00759118 0.826211 0)
(-0.00150176 0.682138 0)
(-0.0648868 1.84265 2.63974e-21)
(-0.0713384 1.73477 0)
(0.0119596 1.73988 1.59928e-19)
(-0.0350741 1.45627 1.38691e-20)
(2.08553e-06 0.786618 0)
(-0.0344597 0.825611 0)
(-0.0202882 0.676455 0)
(-0.050103 1.19844 0)
(-0.0327174 1.11787 0)
(0.929929 0.0144457 0)
(0.856002 -0.00207697 0)
(0.916208 0.00399181 0)
(0.834205 -0.00986879 0)
(0.812038 0.00541559 0)
(0.90322 0.0158598 0)
(0.880799 0.0163254 0)
(0.786731 0.00413367 0)
(0.00585651 3.06485 -5.967e-21)
(0.016528 3.05802 0)
(0.0147376 2.96914 0)
(0.00855 2.8763 0)
(0.929637 3.98744 0)
(1.24561 3.31738 1.01669e-18)
(0.0715258 3.08228 0)
(-0.0263441 2.91068 0)
(-0.0387 1.8001 0)
(-0.0426654 1.82695 0)
(-0.0354191 1.81063 0)
(-0.0134771 1.85224 4.86068e-21)
(-0.0344289 1.84798 0)
(-0.0224688 1.84199 0)
(0.0162681 1.42543 -3.66348e-20)
(0.0431054 1.63213 -9.59783e-20)
(0.0274021 1.62073 -3.84723e-20)
(0.00662522 1.42222 0)
(0.609808 0.12469 2.82725e-19)
(0.53732 0.0200412 -2.75585e-19)
(0.264148 1.53086 0)
(0.257713 0.668807 -2.09419e-19)
(0.172223 1.614 -7.02629e-19)
(0.242443 1.15834 7.04691e-19)
(0.903465 0.00663758 0)
(0.967751 0.0107283 0)
(0.97487 0.0106944 0)
(0.924178 0.00662588 0)
(-0.0412391 1.30574 0)
(-0.0249045 1.38232 0)
(-0.0258766 1.19165 0)
(0.361186 0.283209 3.73557e-19)
(0.305135 0.264964 -4.56042e-19)
(0.312271 0.204166 0)
(1.11016 0.0855911 -3.92242e-21)
(1.09527 0.0396112 0)
(1.02254 0.0390964 0)
(0.924253 0.00425477 0)
(0.633829 0.093845 0)
(0.665323 0.0684193 -1.19671e-18)
(0.552611 0.00496901 4.57302e-19)
(0.00975912 2.9821 4.13677e-19)
(-0.0321572 2.8677 4.85819e-20)
(0.00375798 3.05016 -1.28996e-20)
(0.0200346 3.04353 4.64305e-19)
(-0.0150352 2.99656 2.14095e-20)
(-0.0129719 2.94945 -8.67224e-23)
(-0.0172627 3.012 -4.06463e-19)
(0.0147638 3.02411 2.93639e-19)
(0.00727259 3.03667 -4.58393e-19)
(0.92573 -0.00122435 0)
(0.935076 -0.00240815 0)
(0.841261 -0.00749535 0)
(0.957262 0.0113792 0)
(0.94401 0.0131729 0)
(0.883396 0.00688035 0)
(0.919158 0.0147785 0)
(0.92789 0.014548 0)
(0.83994 0.00750306 0)
(0.718171 1.41411 3.33161e-19)
(0.753568 1.52516 0)
(0.220863 0.357161 2.46237e-20)
(0.183454 0.589994 2.00049e-19)
(0.266774 0.69327 -1.1175e-19)
(0.229031 0.575261 2.0359e-19)
(0.293459 0.706394 7.3914e-19)
(0.108028 0.188555 2.08806e-19)
(0.546366 0.214144 -4.02779e-19)
(0.515864 0.241055 1.03769e-19)
(0.495678 0.139055 2.10038e-19)
(1.18284 0.461002 2.98699e-19)
(1.2005 0.256027 3.12002e-19)
(-0.0563281 2.10962 3.50179e-20)
(-0.0290705 1.89428 0)
(0.973831 0.0296512 0)
(0.941071 0.0192692 0)
(0.882183 -0.0027873 0)
(0.0109652 3.07445 0)
(0.0198513 2.9441 7.94878e-19)
(0.0165253 2.95637 0)
(0.00618544 2.85077 -7.88382e-19)
(0.00617633 3.09142 1.88163e-19)
(0.00738297 3.08272 0)
(0.787547 1.83028 -2.40964e-19)
(1.25286 2.51346 6.64061e-19)
(0.770324 1.97143 -1.4992e-18)
(0.020994 2.98356 -3.0118e-19)
(0.0373174 3.00654 0)
(-0.0322906 2.88172 0)
(0.0661601 1.66155 7.92766e-21)
(0.0624076 1.66606 1.7724e-20)
(0.043872 1.43074 -1.04934e-20)
(0.276894 1.34142 6.79624e-19)
(0.214693 0.447786 -4.69034e-19)
(0.0637129 1.94042 4.68458e-19)
(0.13154 1.83055 -5.8828e-19)
(0.193315 1.44562 8.56346e-20)
(0.00310567 3.11811 -1.10851e-18)
(0.017632 3.1178 1.18522e-18)
(-0.00874104 2.98108 5.09129e-19)
(-0.00268381 2.97769 -4.49771e-19)
(-0.0214869 2.88228 -5.18531e-19)
(0.00878225 3.09902 -1.37743e-18)
(0.00224725 3.10667 1.33829e-18)
(0.231092 0.623049 0)
(0.185226 0.609613 -3.89584e-19)
(0.116877 0.204576 1.75745e-19)
(0.320072 0.828746 6.306e-19)
(0.170413 0.224819 -9.67415e-19)
(1.19491 0.171882 -5.82574e-20)
(1.19981 0.308588 0)
(1.18369 0.120022 1.22375e-19)
(-0.0520728 1.98359 2.14696e-21)
(-0.0518803 2.0644 0)
(-0.0446626 1.85011 0)
(0.329966 1.22671 -2.46613e-19)
(0.349804 1.0404 -5.22896e-19)
(0.188456 0.320638 8.9407e-19)
(1.00585 -0.0110327 0)
(1.0076 -0.00761121 1.95301e-19)
(-0.0372421 1.78571 0)
(-0.0443036 1.7906 0)
(1.00223 0.00343091 1.73762e-21)
(1.0035 0.00920953 4.01719e-19)
(-0.0184182 1.8643 -6.30724e-21)
(-0.012458 1.87029 0)
(0.0395013 3.18314 1.10478e-19)
(0.40031 3.5026 0)
(1.11913 0.644683 6.62662e-20)
(1.0132 0.0127992 -2.03137e-21)
(1.02104 -0.0106149 0)
(1.00174 -3.25478e-05 4.17384e-23)
(0.158423 1.29861 0)
(0.178048 2.56577 0)
(-0.206194 1.12986 0)
(-0.217611 2.64028 -2.06115e-19)
(-0.207178 2.3378 -4.20764e-20)
(1.00734 0.0162676 3.10767e-21)
(1.05091 0.00341052 0)
(1.07599 0.0305326 0)
(-0.0470703 1.82675 0)
(-0.0365388 1.95033 0)
(-0.0790131 1.7055 0)
(0.297094 1.45813 -4.41265e-19)
(1.01114 -0.00963207 0)
(1.00946 -0.0152604 0)
(1.00244 0.000433463 2.485e-19)
(1.00549 -0.00499736 -2.93774e-19)
(1.00123 -0.0010751 0)
(-0.0618344 1.80687 0)
(-0.0449473 1.78225 0)
(-0.0474371 1.79764 0)
(-0.0660475 1.71279 0)
(-0.0406649 1.74862 0)
(-0.0492441 1.74052 0)
(1.03352 -0.0102044 0)
(1.02061 0.0152805 -1.17762e-21)
(0.780618 1.26226 5.21642e-19)
(1.00229 0.000281047 -2.47724e-19)
(1.00391 0.00526203 2.93005e-19)
(1.00124 0.00209332 0)
(1.013 0.0100949 2.41948e-19)
(1.00819 0.00823089 -3.00619e-19)
(1.00871 0.014566 0)
(-0.0341945 1.94451 0)
(-0.025573 1.90317 -8.90739e-21)
(-0.0219151 1.9086 8.98108e-21)
(1.1916 0.257969 -7.55027e-20)
(1.12996 0.0889544 0)
(0.0522384 3.07766 -5.13284e-19)
(0.0683 2.85133 -4.11437e-20)
(0.14773 3.197 8.11196e-19)
(0.142143 3.22629 5.61716e-22)
(0.139882 3.24204 0)
(0.0216918 3.13834 1.10964e-19)
(0.0806506 3.16227 5.0023e-19)
(0.0734623 3.18937 -2.14561e-19)
(0.0249795 3.12899 0)
(0.66224 0.323771 0)
(0.594275 0.369772 0)
(1.09226 0.672389 -2.53414e-19)
(1.09003 0.811433 -9.44521e-20)
(1.14758 0.560852 0)
(1.17952 0.502838 0)
(1.0161 0.0130055 -4.47148e-19)
(1.0148 0.0140091 -1.58317e-21)
(1.02516 -0.0104718 0)
(1.02337 -0.0122147 0)
(1.00697 0.00264297 0)
(1.01029 0.00321867 0)
(1.00477 0.00156071 0)
(1.00994 0.00601577 0)
(1.00808 0.00631567 0)
(1.00421 0.00447605 0)
(0.159778 1.29989 0)
(0.13314 1.1779 0)
(0.179175 1.38218 0)
(0.122746 1.36964 0)
(0.153665 2.5827 0)
(0.189565 2.63726 -2.12275e-19)
(0.102676 2.63848 0)
(0.0935437 2.63354 1.25773e-20)
(-0.016373 2.70927 2.04927e-19)
(-0.18199 1.18845 0)
(-0.190697 1.20653 0)
(-0.171195 1.12608 0)
(-0.0890322 0.986935 0)
(-0.305548 2.32107 3.53544e-19)
(-0.248961 2.46761 -1.85047e-19)
(-0.214563 2.6353 -2.59053e-19)
(-0.204612 2.56047 0)
(-0.193677 2.32625 1.00619e-19)
(-0.120786 2.23419 1.24061e-19)
(-0.352068 2.29094 -3.17734e-19)
(-0.311999 2.40535 2.47126e-19)
(-0.290325 2.50069 3.501e-19)
(1.01673 0.0283102 4.40807e-19)
(1.01082 0.0167769 2.64416e-21)
(1.00851 0.0256477 -4.6114e-19)
(0.991373 0.0121023 5.88993e-19)
(1.05124 0.00492118 0)
(1.03836 -0.0140386 0)
(1.07259 0.0380692 0)
(1.05677 0.0150046 0)
(1.05486 0.00908994 0)
(1.11375 0.0773072 0)
(1.08591 0.0489048 0)
(1.08836 0.0402604 0)
(-0.041454 1.86782 -1.15286e-21)
(-0.0615054 1.84917 0)
(-0.0434058 1.85192 0)
(-0.0469216 1.99203 -4.20644e-21)
(-0.0350606 2.01353 8.45058e-22)
(-0.109958 1.81614 5.81125e-21)
(-0.0746366 1.80418 -5.89605e-21)
(-0.0942141 1.74371 0)
(-0.0712353 1.77153 0)
(-0.0638193 1.77654 0)
(-0.105717 1.67072 0)
(-0.078568 1.60407 0)
(0.38268 1.47441 8.39113e-19)
(0.406703 1.48954 3.27961e-19)
(0.591903 2.43423 -1.5496e-19)
(0.407444 2.52412 4.35363e-19)
(0.350335 2.09099 -4.79217e-20)
(1.02074 -0.00885247 0)
(1.01524 -0.00998599 0)
(1.0148 -0.0155435 0)
(1.0077 -0.00127548 0)
(1.00466 -0.00140352 0)
(1.00751 -0.00469689 0)
(1.00938 -0.00388016 0)
(1.01408 -0.00472956 0)
(1.02194 0.0158339 4.2475e-19)
(1.01739 0.0155276 -5.46225e-19)
(1.02346 0.0192361 -4.29462e-19)
(1.01819 0.0193808 5.38298e-19)
(0.75479 1.31088 0)
(0.687337 1.3681 6.18341e-19)
(0.857235 1.20172 3.5898e-19)
(0.899248 1.16019 -4.77909e-19)
(1.15099 2.61752 -5.59008e-19)
(0.835543 0.106002 2.8996e-19)
(1.13009 0.101948 0)
(1.17434 0.181512 6.53419e-20)
(1.15993 0.157312 2.88416e-21)
(0.984509 0.12251 0)
(0.147083 2.96617 1.29859e-19)
(0.124599 2.87194 -6.64041e-19)
(0.0364822 2.35743 4.79722e-19)
(0.10209 0.0866795 -2.02133e-19)
(0.344807 3.43063 -4.44222e-19)
(0.199155 3.32145 0)
(0.240304 3.36596 5.78517e-19)
(0.254571 3.04012 -7.47951e-19)
(0.349375 3.19986 0)
(0.00638205 3.12088 2.61035e-20)
(0.0170758 3.12973 -3.34365e-19)
(0.0149484 3.12562 4.9213e-19)
(0.0374613 3.14024 0)
(0.0362085 3.15153 0)
(1.21696 2.61858 0)
(0.516593 0.853508 -2.35262e-19)
(1.02138 0.985285 -2.03802e-19)
(0.957061 1.05234 0)
(0.799988 0.948422 5.53413e-20)
(1.04275 0.862383 3.02126e-20)
(0.406292 0.447099 -5.38317e-19)
(0.700276 0.338139 -2.29122e-20)
(0.687055 0.280285 2.22889e-19)
(0.607608 0.399087 1.76676e-20)
(0.545244 0.380161 -7.2586e-19)
(0.671981 0.359075 0)
(0.702557 0.426766 3.67683e-19)
(0.70019 0.423959 0)
(0.634174 0.390987 0)
(0.620633 0.329662 0)
(0.770628 0.588953 1.29889e-19)
(1.18995 0.274137 -5.41109e-20)
(1.18684 0.405337 0)
(1.19855 0.359396 0)
(0.767642 0.195775 3.34359e-19)
(0.822846 0.527536 -1.81794e-19)
(0.736892 0.497155 -2.97058e-19)
(0.914009 0.4201 -2.7739e-19)
(1.01931 0.014466 2.93987e-19)
(1.01771 0.0139037 -3.01044e-19)
(1.01544 0.015377 0)
(1.03468 -0.00697487 0)
(1.02911 -0.0096826 -2.6927e-19)
(1.02721 -0.0121658 2.66355e-19)
(1.02548 0.00830969 0)
(1.02443 0.0127013 0)
(1.01144 0.00367756 0)
(1.01427 0.00891746 0)
(1.01504 0.00344632 0)
(1.01407 0.00212307 0)
(0.149035 1.15106 0)
(0.103417 1.00686 0)
(0.195995 1.40094 3.72859e-19)
(0.269029 1.45308 2.55569e-19)
(0.186823 1.43759 5.71555e-19)
(0.195782 1.43373 -3.08854e-19)
(0.179501 1.40708 0)
(0.137555 1.59157 2.47977e-19)
(0.151265 1.5797 0)
(0.335414 2.04069 6.96531e-20)
(0.345083 2.37599 2.32817e-19)
(0.150408 1.46444 -2.1677e-19)
(0.249301 1.37404 1.95512e-19)
(0.185981 1.38616 1.56797e-19)
(0.262649 1.32089 3.18286e-19)
(0.220748 1.57283 -1.83836e-19)
(0.270254 1.61923 -2.04957e-19)
(0.0503456 2.42822 1.48967e-19)
(-0.0226955 2.71286 0)
(0.0904265 2.44693 -2.12168e-19)
(0.0567166 2.52121 0)
(0.0737955 2.65869 -1.6551e-20)
(0.0125858 2.71455 0)
(-0.305366 1.48557 4.77476e-19)
(-0.272591 1.65457 0)
(-0.131037 1.29944 0)
(-0.226291 1.26709 -5.38252e-19)
(-0.203758 2.68331 -8.29229e-20)
(-0.0988745 2.75456 -3.05688e-19)
(-0.160726 2.71592 -1.7086e-21)
(-0.452331 2.09423 -8.84327e-20)
(-0.448313 2.0456 1.32354e-19)
(-0.175769 1.30773 0)
(-0.130693 1.33851 0)
(0.0425839 1.83167 -7.11534e-19)
(-0.0326068 1.42628 -7.6866e-19)
(-0.0746421 1.64262 9.74324e-19)
(0.189821 1.81594 0)
(-0.116442 1.91712 -1.00641e-22)
(-0.0969258 1.97067 -5.35573e-21)
(-0.119097 2.0107 3.93434e-21)
(-0.413864 1.97365 1.07115e-19)
(-0.204197 2.16222 1.34944e-20)
(-0.2362 2.22769 -7.64861e-20)
(1.02076 0.0236029 -2.90751e-19)
(1.01823 0.0260407 2.89669e-19)
(1.01397 0.0214908 0)
(1.00751 0.0486884 4.21362e-19)
(0.994295 0.035194 -4.94462e-19)
(0.964867 0.0231563 5.72957e-19)
(1.00832 0.0840876 -5.44983e-20)
(1.03941 -0.0093374 0)
(1.04162 -0.00863409 2.4066e-19)
(1.03348 -0.0180996 -2.42709e-19)
(1.05964 0.0423635 -1.3279e-20)
(1.05592 0.0238413 1.18337e-19)
(1.05663 0.0515385 0)
(1.05008 0.0428355 -4.43308e-20)
(1.03928 0.0289089 0)
(1.03521 0.0250546 0)
(1.02812 0.0118431 0)
(1.02663 0.0151764 0)
(1.04754 0.0267191 9.24145e-20)
(1.04644 0.0188425 -2.09315e-19)
(1.05144 0.0266987 -9.29324e-20)
(1.04954 0.02747 -1.08068e-19)
(1.05857 0.058252 1.93164e-19)
(1.07822 0.0515675 0)
(1.08314 0.0936112 0)
(-0.109852 1.90738 2.9274e-21)
(-0.0782309 1.85357 -9.52173e-22)
(-0.0889408 1.86558 0)
(-0.0715861 1.91382 -2.93048e-21)
(-0.0496301 1.8756 2.01767e-21)
(-0.0580681 1.894 1.94161e-22)
(-0.0965007 2.19763 -1.28315e-19)
(-0.124365 2.06014 1.77457e-21)
(-0.1504 2.11133 -1.55697e-20)
(-0.0523685 2.08557 3.50158e-20)
(-0.0571593 2.1092 1.03331e-20)
(-0.147579 1.77611 -8.13597e-22)
(-0.138273 1.82331 8.29518e-21)
(0.380402 1.39512 -4.21739e-19)
(0.372152 1.36354 -4.06571e-19)
(0.639128 1.41707 -5.95235e-19)
(0.516544 1.47935 -3.1893e-19)
(0.556556 1.45557 0)
(0.589638 2.40783 1.22969e-19)
(0.662305 2.38935 2.24275e-19)
(0.408543 2.50194 7.89205e-20)
(0.404902 2.55423 -1.65666e-19)
(0.518115 2.51419 2.63292e-19)
(0.545218 2.4475 0)
(0.485419 2.49287 -3.56346e-19)
(0.240117 2.56952 6.11668e-19)
(0.350815 2.55027 -7.92883e-20)
(0.282332 2.62792 -9.24744e-19)
(0.923069 2.37486 2.10659e-19)
(0.819293 2.36966 0)
(1.01032 0.000367588 9.76657e-21)
(1.01485 -0.00579471 -8.02107e-21)
(1.01826 -0.0039313 -1.45078e-19)
(1.01503 -0.000582764 1.45016e-19)
(1.01225 0.00107559 0)
(0.621497 1.26304 0)
(0.624072 1.17193 0)
(0.730411 1.07657 0)
(0.623639 1.12002 0)
(1.18157 2.63401 5.58107e-20)
(1.065 2.36877 0)
(0.835312 2.23645 -1.85241e-21)
(0.824026 2.47865 0)
(0.914852 2.56452 1.37157e-20)
(0.948507 2.52085 0)
(0.843806 0.145608 0)
(0.812828 0.147374 8.36492e-20)
(0.928228 0.125711 4.26528e-19)
(0.866522 0.116105 -1.70789e-19)
(0.850155 0.0660668 -5.156e-19)
(1.03699 0.21534 -2.40351e-19)
(0.956073 0.27228 -1.58722e-20)
(0.903276 0.272132 3.87501e-19)
(0.970654 0.198737 2.87168e-19)
(0.936655 0.158943 -5.364e-19)
(0.91037 0.171372 6.95678e-20)
(0.936426 0.234775 -1.35302e-19)
(0.913381 0.19402 0)
(0.971641 0.158065 -2.56642e-19)
(1.01271 0.163656 0)
(1.00739 0.190424 0)
(1.07567 0.109644 8.14891e-20)
(1.03667 0.155609 -1.29929e-20)
(1.03099 0.217492 -1.26306e-19)
(1.06726 0.190482 0)
(1.02563 0.028546 2.19618e-19)
(1.04289 0.0476748 2.6111e-19)
(1.04094 0.031798 -2.18371e-19)
(1.04004 0.0526221 -1.75902e-19)
(1.01963 0.0539555 -2.96286e-19)
(0.97468 0.124451 0)
(0.986267 0.0775024 0)
(0.968438 0.0426282 -2.06454e-19)
(0.934988 0.0577886 8.61195e-20)
(1.02766 0.083967 2.47315e-19)
(1.04309 0.110585 -2.499e-19)
(1.04682 0.136557 2.28458e-19)
(1.01286 0.123368 0)
(1.0524 0.0972 0)
(1.03998 0.0800401 -1.04322e-19)
(1.03688 0.0809289 -1.98666e-19)
(0.575035 1.07837 -1.00789e-19)
(0.618928 1.44529 2.0154e-19)
(1.15695 2.76017 1.07797e-19)
(1.22403 3.09676 -7.20915e-20)
(1.24633 2.73503 5.69524e-19)
(1.27931 2.71865 -3.43428e-19)
(1.2055 2.35374 -8.08028e-21)
(1.21001 3.00055 1.9941e-19)
(1.22768 2.96579 -2.23177e-19)
(1.21623 3.25011 -2.70536e-19)
(1.37858 2.98143 3.74617e-19)
(1.37176 2.89832 0)
(0.517827 0.863242 -1.25483e-20)
(0.161183 1.28667 3.72654e-19)
(0.527394 0.522745 3.53918e-19)
(0.363109 0.292033 3.87444e-19)
(0.556113 0.413019 4.06493e-19)
(0.558129 0.483568 -6.48369e-19)
(0.563672 0.496724 5.33726e-19)
(0.522624 0.449068 -2.12556e-19)
(0.467625 0.385968 4.8643e-19)
(0.777164 0.250898 5.75458e-19)
(0.728483 0.302587 0)
(0.722989 0.239368 1.08953e-20)
(0.728426 0.510341 1.88211e-19)
(0.697312 0.477569 -6.9646e-19)
(0.624569 0.47975 1.8759e-20)
(0.637612 0.457198 0)
(0.646534 0.726902 1.50681e-19)
(0.789698 0.750474 5.71341e-20)
(0.71319 0.835642 -7.48884e-20)
(0.83552 0.78746 -1.69369e-20)
(0.870335 0.830079 1.41729e-20)
(0.878807 0.832038 -1.45144e-20)
(0.810394 0.626976 -2.2179e-19)
(0.884788 0.679494 1.57395e-20)
(0.941621 0.696008 0)
(0.930827 0.674433 -1.43023e-20)
(0.981936 0.310489 6.10994e-20)
(1.09864 0.282606 3.29996e-21)
(1.02138 0.249007 9.8022e-20)
(0.965616 0.345157 -1.41496e-19)
(1.01611 0.40346 0)
(1.05915 0.390454 0)
(0.887858 0.355527 5.30684e-21)
(0.827451 0.283906 0)
(0.84969 0.272815 2.00098e-19)
(0.881943 0.278455 -5.73308e-21)
(0.906216 0.423109 7.58588e-19)
(0.869611 0.480251 1.92165e-19)
(0.873232 0.447961 -2.4756e-19)
(0.802017 0.433859 -2.65701e-19)
(0.787961 0.432428 1.80753e-19)
(0.753275 0.41454 -1.77619e-19)
(1.02724 -0.00132972 2.33757e-19)
(1.01988 -0.000170232 0)
(1.0183 0.000720083 1.54865e-19)
(1.02196 -0.00116992 -3.44896e-21)
(1.02164 0.00395381 1.68754e-19)
(1.02072 0.0103661 -3.54496e-19)
(1.02164 0.00983322 0)
(1.02056 0.0107652 -7.48382e-20)
(1.01607 0.00761153 1.87772e-19)
(1.01692 0.0103339 -9.42003e-20)
(1.01769 0.00955397 6.90164e-20)
(-0.0604162 1.04537 0)
(-0.0623562 1.22942 0)
(0.0461083 1.04629 0)
(0.0105259 0.928928 0)
(0.222495 1.34392 -8.55513e-19)
(0.218492 1.30727 2.76234e-19)
(0.232331 1.50691 1.81287e-19)
(0.218496 1.36689 -2.06759e-19)
(0.119272 1.50114 6.99666e-19)
(0.158298 1.4598 -5.25651e-19)
(0.257718 1.31531 -1.99348e-20)
(0.221729 1.23122 -7.64819e-19)
(0.143831 1.17231 8.68624e-20)
(0.0866856 1.18946 -8.90742e-20)
(0.119969 2.40831 2.21724e-19)
(0.111863 2.43241 0)
(0.185742 2.07473 -2.56832e-20)
(0.183074 1.76018 -1.06779e-19)
(0.223127 2.07227 2.34978e-20)
(0.199513 2.44956 0)
(0.263823 2.40694 -1.36335e-19)
(0.296003 2.40966 9.68788e-20)
(0.208408 2.01341 8.50904e-20)
(0.14841 2.18507 6.6114e-21)
(0.146195 2.32016 0)
(-0.0293427 2.24839 7.05136e-19)
(-0.205666 2.62161 6.08232e-19)
(-0.167174 2.51845 0)
(-0.038615 2.62329 -3.09665e-20)
(0.0165573 2.49429 -3.28552e-19)
(-0.336105 1.41589 -4.53731e-20)
(-0.292644 1.44793 6.6446e-19)
(-0.312493 1.53096 -1.39846e-19)
(-0.410484 1.53543 -2.83389e-19)
(-0.357412 1.46446 0)
(-0.296788 1.51631 0)
(-0.136815 1.56857 -3.81787e-20)
(-0.221524 1.60281 1.40305e-20)
(-0.274174 1.52982 0)
(-0.168642 1.43639 -3.74601e-20)
(-0.0999042 1.48387 6.35774e-20)
(1.03908 0.00148301 0)
(1.0408 -0.00128528 -2.22491e-20)
(1.04672 0.013623 -1.66228e-19)
(1.05077 0.0120952 0)
(1.05055 0.00947795 0)
(1.04013 0.00373951 -6.71941e-21)
(1.03459 0.00505154 2.74748e-19)
(1.03607 0.0111448 3.32164e-19)
(1.02823 0.0187522 0)
(1.0271 0.0197711 0)
(1.04145 0.020488 1.67325e-19)
(1.03373 0.021864 0)
(1.03049 0.021308 0)
(-0.233833 1.94324 0)
(-0.172997 1.83129 9.94181e-22)
(-0.185936 1.90899 3.36203e-22)
(-0.194492 1.64646 0)
(-0.22461 1.79145 -1.51957e-20)
(-0.173748 1.75185 -2.72525e-21)
(-0.166817 1.70001 0)
(0.401827 1.67863 0)
(0.369647 1.29295 6.60618e-19)
(0.295738 1.34791 0)
(0.430143 1.27427 -4.60681e-19)
(0.472667 1.44416 0)
(0.44655 1.38581 4.02159e-19)
(1.0256 2.70318 -4.00447e-21)
(0.947505 2.40818 -2.79669e-19)
(0.882876 2.15889 3.18451e-19)
(0.836838 2.36325 1.30417e-19)
(0.844568 2.51614 0)
(0.905911 2.5115 0)
(0.897842 2.36922 0)
(0.908469 2.33538 -4.62553e-19)
(0.69544 2.49556 -2.19819e-20)
(0.802329 2.48519 -1.41292e-20)
(0.810048 2.45846 1.08099e-20)
(0.688467 2.37048 0)
(0.785083 2.36744 0)
(0.753684 2.37697 -2.22714e-19)
(0.7698 2.50201 0)
(0.586816 1.08771 0)
(0.479563 0.936352 4.08354e-21)
(0.524079 0.966933 -9.89119e-22)
(0.510342 1.05596 0)
(0.510505 1.01239 -3.47143e-21)
(0.735775 0.862698 1.43909e-20)
(0.757726 1.00151 0)
(0.729521 0.957134 -6.39526e-20)
(0.610382 1.02308 0)
(0.612624 0.936015 0)
(1.16017 2.78031 6.00877e-20)
(1.13881 2.84464 1.28185e-19)
(0.931383 2.374 -2.91332e-19)
(0.898824 2.3475 3.22729e-20)
(1.12286 2.74993 0)
(1.07376 2.72062 -4.42903e-20)
(1.07995 2.49337 -7.08163e-20)
(0.972682 2.22877 -3.00148e-20)
(0.483361 1.3729 0)
(0.492183 1.0672 8.88021e-20)
(0.539714 1.14933 0)
(0.85657 0.217514 0)
(0.81983 0.178066 0)
(0.781037 0.161779 0)
(0.850197 0.222013 -3.14645e-19)
(0.798368 0.217002 1.95715e-19)
(0.941335 0.0508013 -1.77237e-19)
(0.952936 0.100779 0)
(0.925728 0.104896 8.0033e-20)
(0.88794 0.0806574 3.28064e-19)
(0.880466 0.0473844 -2.01423e-19)
(1.16672 3.37545 -9.86948e-19)
(1.21259 3.29496 0)
(1.16691 3.40213 -1.94339e-18)
(0.653035 3.56283 1.66817e-18)
(0.879647 3.12863 3.84344e-19)
(0.498865 0.886727 2.19711e-19)
(0.431092 0.87367 0)
(0.360022 0.553759 -8.39284e-20)
(0.444351 0.698493 -3.8153e-19)
(0.534207 0.523307 -1.12004e-19)
(0.518736 0.547008 1.2963e-19)
(0.663276 0.527346 2.68192e-19)
(0.688778 0.542836 0)
(0.645191 0.622189 0)
(0.599048 0.55115 0)
(0.93866 0.585029 -5.20786e-20)
(0.871952 0.525282 -1.85804e-19)
(0.89364 0.558134 8.59092e-20)
(0.925412 0.49917 -1.36517e-19)
(1.02601 0.464369 0)
(1.03419 0.557404 -5.19453e-21)
(0.822924 0.390678 -4.01699e-19)
(0.824527 0.375099 6.05973e-19)
(0.777862 0.387394 3.15045e-19)
(0.77334 0.356186 -3.56032e-19)
(0.822895 0.312145 -2.64942e-19)
(0.778262 0.314961 3.25946e-19)
(1.02597 0.00450096 -1.7366e-19)
(1.02583 0.00431655 3.52666e-19)
(1.0308 -0.0013607 2.21817e-19)
(1.03136 -0.00144062 -2.66182e-19)
(1.03493 0.000497094 0)
(1.03169 0.00220911 -4.30225e-19)
(0.187344 1.78448 -1.02328e-19)
(0.174056 1.73275 0)
(0.195758 1.77695 -5.60307e-19)
(0.190387 1.7508 5.26308e-19)
(0.215593 1.60637 -3.35831e-19)
(0.285091 1.61973 0)
(-0.398895 1.96256 0)
(-0.35708 1.72563 1.62806e-20)
(-0.303216 1.71583 -1.4762e-20)
(-0.254668 1.80435 1.64221e-21)
(-0.265655 1.96632 1.09461e-20)
(-0.308629 1.97818 4.85007e-21)
(0.481574 1.38426 4.17633e-19)
(0.483603 1.38608 4.84355e-19)
(0.441925 1.27554 4.20371e-19)
(0.43499 1.29391 -2.55353e-20)
(0.613728 1.28505 0)
(0.532125 1.36699 5.4753e-19)
(0.551718 1.39473 -5.30541e-19)
(0.448333 1.26243 -4.02536e-19)
(0.491375 1.22168 0)
(0.542264 1.18213 0)
(0.666098 2.45632 3.22939e-20)
(0.674824 2.47498 5.35798e-19)
(0.722064 2.49104 -3.68559e-19)
(0.632427 2.47437 -1.18268e-19)
(0.570605 2.57459 9.59569e-20)
(0.515547 2.5449 -2.92979e-19)
(0.960141 2.37105 -1.71397e-19)
(1.00408 2.39456 0)
(0.897752 2.14124 -2.37352e-19)
(1.04255 2.70017 0)
(1.04312 2.68738 0)
(0.623242 2.29608 2.47465e-19)
(1.04589 3.17679 4.88101e-19)
(0.917611 3.04636 -4.3581e-19)
(0.295073 0.971903 0)
(0.34936 0.8448 -1.51743e-19)
(0.493362 0.794053 -5.14974e-19)
(0.408318 2.05006 0)
(0.474632 2.79457 -2.67615e-19)
(0.435551 2.56048 0)
(0.664712 0.665844 -3.12065e-19)
(0.736004 0.652746 3.96092e-19)
(0.767167 0.602993 2.7906e-19)
(0.666989 0.629788 4.62029e-20)
(0.719998 0.584082 -1.88162e-19)
(1.00679 2.78362 -3.71067e-19)
(1.03939 2.84012 2.94283e-19)
(0.651438 2.19603 4.38838e-20)
(0.603985 1.73829 -6.27945e-20)
(0.705448 1.92744 1.17009e-19)
(0.991044 2.46612 -6.77892e-20)
(0.993817 2.46643 -1.70174e-19)
(0.672347 1.88171 -5.64104e-21)
(0.45842 1.35012 -1.22625e-19)
)
;

boundaryField
{
    wall-4
    {
        type            noSlip;
    }
    velocity-inlet-5
    {
        type            fixedValue;
        value           uniform (1 0 0);
    }
    velocity-inlet-6
    {
        type            fixedValue;
        value           uniform (0 3 0);
    }
    pressure-outlet-7
    {
        type            zeroGradient;
    }
    wall-8
    {
        type            noSlip;
    }
    frontAndBackPlanes
    {
        type            empty;
    }
}


// ************************************************************************* //
